       N       E                     dE             d eps       ncg     rms          rms(c)
DAV:   1     0.112459278948E+04    0.11246E+04   -0.35864E+04  8160   0.577E+02
DAV:   2     0.244103864326E+01   -0.11222E+04   -0.10757E+04 10920   0.173E+02
DAV:   3    -0.199476225305E+03   -0.20192E+03   -0.19337E+03 10920   0.826E+01
DAV:   4    -0.208970953577E+03   -0.94947E+01   -0.91974E+01 12000   0.265E+01
DAV:   5    -0.209321068956E+03   -0.35012E+00   -0.34915E+00 11400   0.379E+00    0.275E+01
DAV:   6    -0.237937851944E+03   -0.28617E+02   -0.10740E+02 12600   0.601E+01    0.595E+01
DAV:   7    -0.196561940605E+03    0.41376E+02   -0.17573E+02 13600   0.153E+02    0.200E+01
DAV:   8    -0.189486226590E+03    0.70757E+01   -0.17907E+01 11840   0.127E+01    0.125E+01
DAV:   9    -0.188163308890E+03    0.13229E+01   -0.31226E+00 13440   0.626E+00    0.923E+00
DAV:  10    -0.186957706991E+03    0.12056E+01   -0.17361E+00 13360   0.770E+00    0.215E+00
DAV:  11    -0.187051828691E+03   -0.94122E-01   -0.58169E-01 13520   0.288E+00    0.369E+00
DAV:  12    -0.186994382954E+03    0.57446E-01   -0.74579E-01 12600   0.428E+00    0.361E+00
DAV:  13    -0.186888700129E+03    0.10568E+00   -0.30780E-01 13000   0.302E+00    0.189E+00
DAV:  14    -0.186850924304E+03    0.37776E-01   -0.10351E-01 12960   0.173E+00    0.853E-01
DAV:  15    -0.186849437387E+03    0.14869E-02   -0.28829E-02 12600   0.911E-01    0.852E-01
DAV:  16    -0.186843483197E+03    0.59542E-02   -0.11994E-02 13240   0.559E-01    0.290E-01
DAV:  17    -0.186842175772E+03    0.13074E-02   -0.46534E-03 12840   0.299E-01    0.185E-01
DAV:  18    -0.186841941804E+03    0.23397E-03   -0.18328E-03 11960   0.150E-01    0.131E-01
DAV:  19    -0.186841740016E+03    0.20179E-03   -0.82902E-04 10840   0.902E-02    0.602E-02
DAV:  20    -0.186842479710E+03   -0.73969E-03   -0.68672E-04  9240   0.764E-02    0.561E-02
DAV:  21    -0.186843260576E+03   -0.78087E-03   -0.23388E-04  8080   0.466E-02    0.338E-02
DAV:  22    -0.186844258052E+03   -0.99748E-03   -0.16937E-04  7440   0.414E-02    0.313E-02
DAV:  23    -0.186845420535E+03   -0.11625E-02   -0.10755E-04  7440   0.372E-02    0.120E-02
DAV:  24    -0.186845977535E+03   -0.55700E-03   -0.24515E-05  6800   0.141E-02    0.472E-03
DAV:  25    -0.186846370345E+03   -0.39281E-03   -0.15732E-05  5440   0.935E-03    0.311E-03
DAV:  26    -0.186846614473E+03   -0.24413E-03   -0.91840E-06  6800   0.685E-03    0.160E-03
DAV:  27    -0.186846701295E+03   -0.86822E-04   -0.32204E-06  7520   0.403E-03
   1 F= -.18684670E+03 E0= -.18667570E+03  d E =-.186847E+03
       N       E                     dE             d eps       ncg     rms          rms(c)
DAV:   1    -0.187498953787E+03   -0.65234E+00   -0.27194E+02  8160   0.350E+01    0.460E+00
DAV:   2    -0.189381591211E+03   -0.18826E+01   -0.19917E+01 12240   0.151E+01    0.912E+00
DAV:   3    -0.189353669408E+03    0.27922E-01   -0.47089E+00 12440   0.124E+01    0.634E+00
DAV:   4    -0.188754312471E+03    0.59936E+00   -0.56466E-01 11880   0.452E+00    0.193E+00
DAV:   5    -0.188869176138E+03   -0.11486E+00   -0.44388E-01 11760   0.375E+00    0.529E+00
DAV:   6    -0.188737454000E+03    0.13172E+00   -0.75714E-01 12640   0.433E+00    0.236E+00
DAV:   7    -0.188686953578E+03    0.50500E-01   -0.18585E-01 11880   0.195E+00    0.178E+00
DAV:   8    -0.188683880327E+03    0.30733E-02   -0.12063E-01 12400   0.196E+00    0.186E+00
DAV:   9    -0.188655899990E+03    0.27980E-01   -0.55230E-02 11720   0.119E+00    0.454E-01
DAV:  10    -0.188654968194E+03    0.93180E-03   -0.58642E-03 12840   0.318E-01    0.208E-01
DAV:  11    -0.188654531468E+03    0.43673E-03   -0.21865E-03 12520   0.157E-01    0.154E-01
DAV:  12    -0.188654546466E+03   -0.14998E-04   -0.86387E-04 11200   0.876E-02
   2 F= -.18865455E+03 E0= -.18851569E+03  d E =-.180785E+01
       N       E                     dE             d eps       ncg     rms          rms(c)
DAV:   1    -0.190576231628E+03   -0.19217E+01   -0.31013E+01  9200   0.142E+01    0.445E+00
DAV:   2    -0.190525543506E+03    0.50688E-01   -0.27681E+00 11520   0.944E+00    0.718E+00
DAV:   3    -0.190059766310E+03    0.46578E+00   -0.12889E+00 12320   0.860E+00    0.423E+00
DAV:   4    -0.189848669869E+03    0.21110E+00   -0.67412E-01 13000   0.429E+00    0.251E+00
DAV:   5    -0.189813050138E+03    0.35620E-01   -0.35753E-01 12240   0.301E+00    0.266E+00
DAV:   6    -0.189747497378E+03    0.65553E-01   -0.13752E-01 12720   0.238E+00    0.676E-01
DAV:   7    -0.189742706270E+03    0.47911E-02   -0.13339E-02 11640   0.553E-01    0.352E-01
DAV:   8    -0.189742908474E+03   -0.20220E-03   -0.56388E-03 12640   0.454E-01    0.362E-01
DAV:   9    -0.189741903544E+03    0.10049E-02   -0.22280E-03 11400   0.263E-01    0.113E-01
DAV:  10    -0.189742154484E+03   -0.25094E-03   -0.62584E-04  9920   0.922E-02    0.715E-02
DAV:  11    -0.189742080943E+03    0.73541E-04   -0.20798E-04  8040   0.500E-02
   3 F= -.18974208E+03 E0= -.18962574E+03  d E =-.108753E+01
       N       E                     dE             d eps       ncg     rms          rms(c)
DAV:   1    -0.191317472160E+03   -0.15753E+01   -0.75037E+01  8160   0.198E+01    0.461E+00
DAV:   2    -0.191117974950E+03    0.19950E+00   -0.53271E+00 13400   0.758E+00    0.443E+00
DAV:   3    -0.191312203927E+03   -0.19423E+00   -0.15059E+00 12240   0.911E+00    0.729E+00
DAV:   4    -0.190900502791E+03    0.41170E+00   -0.16835E+00 11880   0.852E+00    0.342E+00
DAV:   5    -0.190902859472E+03   -0.23567E-02   -0.64871E-01 11120   0.534E+00    0.354E+00
DAV:   6    -0.190732793742E+03    0.17007E+00   -0.20924E-01 12120   0.321E+00    0.652E-01
DAV:   7    -0.190732872078E+03   -0.78336E-04   -0.31294E-02 12440   0.758E-01    0.550E-01
DAV:   8    -0.190730569503E+03    0.23026E-02   -0.12011E-02 11680   0.686E-01    0.489E-01
DAV:   9    -0.190728467931E+03    0.21016E-02   -0.42433E-03 11560   0.447E-01    0.168E-01
DAV:  10    -0.190728732613E+03   -0.26468E-03   -0.13805E-03 10960   0.153E-01    0.113E-01
DAV:  11    -0.190728545696E+03    0.18692E-03   -0.63124E-04 10160   0.945E-02    0.429E-02
DAV:  12    -0.190728548926E+03   -0.32303E-05   -0.10121E-04  7120   0.356E-02
   4 F= -.19072855E+03 E0= -.19063097E+03  d E =-.986468E+00
       N       E                     dE             d eps       ncg     rms          rms(c)
DAV:   1    -0.192165786892E+03   -0.14372E+01   -0.17301E+02  8160   0.293E+01    0.580E+00
DAV:   2    -0.191885226148E+03    0.28056E+00   -0.97278E+00 10960   0.803E+00    0.401E+00
DAV:   3    -0.192362312710E+03   -0.47709E+00   -0.27908E+00 12120   0.109E+01    0.856E+00
DAV:   4    -0.191680983776E+03    0.68133E+00   -0.22542E+00 11560   0.108E+01    0.349E+00
DAV:   5    -0.191627132556E+03    0.53851E-01   -0.57243E-01 12200   0.564E+00    0.435E+00
DAV:   6    -0.191473952659E+03    0.15318E+00   -0.61672E-01 12320   0.518E+00    0.166E+00
DAV:   7    -0.191465197344E+03    0.87553E-02   -0.10960E-01 12640   0.200E+00    0.130E+00
DAV:   8    -0.191446224508E+03    0.18973E-01   -0.35517E-02 12320   0.144E+00    0.438E-01
DAV:   9    -0.191443666923E+03    0.25576E-02   -0.67814E-03 11320   0.449E-01    0.192E-01
DAV:  10    -0.191443831270E+03   -0.16435E-03   -0.27719E-03 11560   0.205E-01    0.101E-01
DAV:  11    -0.191443758813E+03    0.72458E-04   -0.57737E-04 10320   0.912E-02
   5 F= -.19144376E+03 E0= -.19135066E+03  d E =-.715210E+00
       N       E                     dE             d eps       ncg     rms          rms(c)
DAV:   1    -0.191523314018E+03   -0.79483E-01   -0.76976E+00  8160   0.582E+00    0.765E-01
DAV:   2    -0.191604473988E+03   -0.81160E-01   -0.34230E-01 13600   0.356E+00    0.249E+00
DAV:   3    -0.191534702541E+03    0.69771E-01   -0.12360E-01 12600   0.270E+00    0.385E-01
DAV:   4    -0.191538279147E+03   -0.35766E-02   -0.15267E-02 11600   0.837E-01    0.759E-01
DAV:   5    -0.191532845039E+03    0.54341E-02   -0.11164E-02 11520   0.748E-01    0.218E-01
DAV:   6    -0.191533685665E+03   -0.84063E-03   -0.39962E-03 11400   0.362E-01    0.333E-01
DAV:   7    -0.191532955102E+03    0.73056E-03   -0.39933E-03 11280   0.441E-01    0.222E-01
DAV:   8    -0.191532397608E+03    0.55749E-03   -0.10488E-03 10440   0.205E-01    0.366E-02
DAV:   9    -0.191532412227E+03   -0.14619E-04   -0.10566E-04  6560   0.400E-02
   6 F= -.19153241E+03 E0= -.19143754E+03  d E =-.886534E-01
       N       E                     dE             d eps       ncg     rms          rms(c)
DAV:   1    -0.191638396098E+03   -0.10600E+00   -0.19668E+01  8160   0.926E+00    0.108E+00
DAV:   2    -0.191778217960E+03   -0.13982E+00   -0.61645E-01 13120   0.457E+00    0.330E+00
DAV:   3    -0.191658437931E+03    0.11978E+00   -0.24183E-01 12400   0.374E+00    0.659E-01
DAV:   4    -0.191667330141E+03   -0.88922E-02   -0.38621E-02 12080   0.135E+00    0.121E+00
DAV:   5    -0.191653250464E+03    0.14080E-01   -0.28164E-02 11680   0.118E+00    0.332E-01
DAV:   6    -0.191655912971E+03   -0.26625E-02   -0.10930E-02 11560   0.645E-01    0.595E-01
DAV:   7    -0.191653227028E+03    0.26859E-02   -0.10290E-02 11600   0.710E-01    0.295E-01
DAV:   8    -0.191652120245E+03    0.11068E-02   -0.21116E-03 10840   0.271E-01    0.525E-02
DAV:   9    -0.191652116736E+03    0.35091E-05   -0.26241E-04  8240   0.571E-02
   7 F= -.19165212E+03 E0= -.19155643E+03  d E =-.119705E+00
       N       E                     dE             d eps       ncg     rms          rms(c)
DAV:   1    -0.191713304745E+03   -0.61185E-01   -0.64705E+00  8160   0.540E+00    0.711E-01
DAV:   2    -0.191763651096E+03   -0.50346E-01   -0.25280E-01 13560   0.289E+00    0.201E+00
DAV:   3    -0.191718850250E+03    0.44801E-01   -0.87222E-02 12440   0.226E+00    0.377E-01
DAV:   4    -0.191721828528E+03   -0.29783E-02   -0.14567E-02 12360   0.823E-01    0.735E-01
DAV:   5    -0.191716610969E+03    0.52176E-02   -0.11427E-02 10880   0.793E-01    0.255E-01
DAV:   6    -0.191716313537E+03    0.29743E-03   -0.32834E-03 10840   0.275E-01    0.146E-01
DAV:   7    -0.191715939480E+03    0.37406E-03   -0.11898E-03 10800   0.152E-01    0.945E-02
DAV:   8    -0.191715923549E+03    0.15931E-04   -0.48651E-04  8840   0.144E-01
   8 F= -.19171592E+03 E0= -.19161998E+03  d E =-.638068E-01
       N       E                     dE             d eps       ncg     rms          rms(c)
DAV:   1    -0.191781266727E+03   -0.65327E-01   -0.10524E+01  8160   0.687E+00    0.741E-01
DAV:   2    -0.191824861325E+03   -0.43595E-01   -0.33903E-01 12360   0.259E+00    0.165E+00
DAV:   3    -0.191799783373E+03    0.25078E-01   -0.87907E-02 12400   0.206E+00    0.666E-01
DAV:   4    -0.191801995934E+03   -0.22126E-02   -0.26775E-02 12400   0.110E+00    0.886E-01
DAV:   5    -0.191794073346E+03    0.79226E-02   -0.16102E-02 12000   0.933E-01    0.270E-01
DAV:   6    -0.191794500240E+03   -0.42689E-03   -0.56613E-03 10360   0.400E-01    0.297E-01
DAV:   7    -0.191794421005E+03    0.79236E-04   -0.49653E-03 11600   0.499E-01    0.339E-01
DAV:   8    -0.191793244407E+03    0.11766E-02   -0.19418E-03 10040   0.302E-01    0.476E-02
DAV:   9    -0.191793234268E+03    0.10139E-04   -0.12910E-04  6120   0.459E-02
   9 F= -.19179323E+03 E0= -.19169803E+03  d E =-.773107E-01
       N       E                     dE             d eps       ncg     rms          rms(c)
DAV:   1    -0.191791492932E+03    0.17515E-02   -0.19720E-01  8160   0.965E-01    0.142E-01
DAV:   2    -0.191791357451E+03    0.13548E-03   -0.53809E-03 10320   0.214E-01    0.104E-01
DAV:   3    -0.191791468437E+03   -0.11099E-03   -0.13134E-03 10920   0.232E-01    0.182E-01
DAV:   4    -0.191791128297E+03    0.34014E-03   -0.77276E-04  8720   0.214E-01    0.796E-02
DAV:   5    -0.191791245519E+03   -0.11722E-03   -0.61977E-04  8680   0.170E-01    0.140E-01
DAV:   6    -0.191791034820E+03    0.21070E-03   -0.41375E-04  8440   0.143E-01    0.268E-02
DAV:   7    -0.191791038348E+03   -0.35281E-05   -0.55569E-05  6240   0.423E-02
  10 F= -.19179104E+03 E0= -.19169563E+03  d E =0.219592E-02
       N       E                     dE             d eps       ncg     rms          rms(c)
DAV:   1    -0.191832492714E+03   -0.41458E-01   -0.31628E+00  8160   0.380E+00    0.411E-01
DAV:   2    -0.191843759756E+03   -0.11267E-01   -0.10103E-01 12040   0.126E+00    0.873E-01
DAV:   3    -0.191838250741E+03    0.55090E-02   -0.27300E-02 12200   0.107E+00    0.449E-01
DAV:   4    -0.191837489331E+03    0.76141E-03   -0.73133E-03 12320   0.576E-01    0.379E-01
DAV:   5    -0.191835961117E+03    0.15282E-02   -0.36767E-03 11240   0.486E-01    0.182E-01
DAV:   6    -0.191836005505E+03   -0.44388E-04   -0.21707E-03 10360   0.278E-01    0.180E-01
DAV:   7    -0.191835967818E+03    0.37687E-04   -0.16381E-03 10240   0.293E-01    0.194E-01
DAV:   8    -0.191835562627E+03    0.40519E-03   -0.61213E-04  8280   0.175E-01    0.253E-02
DAV:   9    -0.191835565793E+03   -0.31663E-05   -0.47912E-05  5800   0.272E-02
  11 F= -.19183557E+03 E0= -.19174090E+03  d E =-.445274E-01
       N       E                     dE             d eps       ncg     rms          rms(c)
DAV:   1    -0.191850610060E+03   -0.15047E-01   -0.35240E-01  8160   0.128E+00    0.164E-01
DAV:   2    -0.191852164474E+03   -0.15544E-02   -0.13660E-02 11800   0.483E-01    0.360E-01
DAV:   3    -0.191851164300E+03    0.10002E-02   -0.42138E-03 11520   0.427E-01    0.173E-01
DAV:   4    -0.191851010692E+03    0.15361E-03   -0.10467E-03  9720   0.216E-01    0.132E-01
DAV:   5    -0.191850852585E+03    0.15811E-03   -0.54933E-04  8760   0.192E-01    0.827E-02
DAV:   6    -0.191850813030E+03    0.39555E-04   -0.33257E-04  7440   0.117E-01
  12 F= -.19185081E+03 E0= -.19175640E+03  d E =-.152472E-01
       N       E                     dE             d eps       ncg     rms          rms(c)
DAV:   1    -0.191903066262E+03   -0.52214E-01   -0.49536E+00  8160   0.479E+00    0.558E-01
DAV:   2    -0.191924185681E+03   -0.21119E-01   -0.17614E-01 11240   0.166E+00    0.129E+00
DAV:   3    -0.191912158287E+03    0.12027E-01   -0.51668E-02 12440   0.148E+00    0.569E-01
DAV:   4    -0.191909129376E+03    0.30289E-02   -0.88883E-03 12240   0.563E-01    0.308E-01
DAV:   5    -0.191908640105E+03    0.48927E-03   -0.46124E-03 11840   0.521E-01    0.310E-01
DAV:   6    -0.191908440208E+03    0.19990E-03   -0.43593E-03 10920   0.470E-01    0.262E-01
DAV:   7    -0.191907989762E+03    0.45045E-03   -0.22626E-03 11120   0.349E-01    0.200E-01
DAV:   8    -0.191907544680E+03    0.44508E-03   -0.74759E-04  8640   0.203E-01    0.334E-02
DAV:   9    -0.191907538206E+03    0.64740E-05   -0.65856E-05  6560   0.364E-02
  13 F= -.19190754E+03 E0= -.19181399E+03  d E =-.567252E-01
       N       E                     dE             d eps       ncg     rms          rms(c)
DAV:   1    -0.191986880249E+03   -0.79336E-01   -0.15816E+01  8160   0.858E+00    0.101E+00
DAV:   2    -0.192071216161E+03   -0.84336E-01   -0.58122E-01 10960   0.317E+00    0.267E+00
DAV:   3    -0.192016317727E+03    0.54898E-01   -0.19370E-01 12320   0.290E+00    0.942E-01
DAV:   4    -0.192010156846E+03    0.61609E-02   -0.30928E-02 12160   0.109E+00    0.734E-01
DAV:   5    -0.192005140286E+03    0.50166E-02   -0.21104E-02 12080   0.112E+00    0.519E-01
DAV:   6    -0.192004830607E+03    0.30968E-03   -0.11727E-02 12480   0.772E-01    0.491E-01
DAV:   7    -0.192003667124E+03    0.11635E-02   -0.84528E-03 11720   0.712E-01    0.376E-01
DAV:   8    -0.192001899527E+03    0.17676E-02   -0.26971E-03 10800   0.389E-01    0.608E-02
DAV:   9    -0.192001872434E+03    0.27093E-04   -0.27265E-04  8400   0.638E-02
  14 F= -.19200187E+03 E0= -.19190976E+03  d E =-.943342E-01
       N       E                     dE             d eps       ncg     rms          rms(c)
DAV:   1    -0.192060372371E+03   -0.58473E-01   -0.19456E+01  8160   0.950E+00    0.116E+00
DAV:   2    -0.192183935649E+03   -0.12356E+00   -0.78852E-01 11320   0.381E+00    0.316E+00
DAV:   3    -0.192103409911E+03    0.80526E-01   -0.26053E-01 12240   0.348E+00    0.108E+00
DAV:   4    -0.192098160926E+03    0.52490E-02   -0.44700E-02 12200   0.149E+00    0.969E-01
DAV:   5    -0.192086818264E+03    0.11343E-01   -0.26652E-02 12400   0.132E+00    0.406E-01
DAV:   6    -0.192087008882E+03   -0.19062E-03   -0.10514E-02 12560   0.627E-01    0.429E-01
DAV:   7    -0.192086878548E+03    0.13033E-03   -0.92014E-03 12440   0.744E-01    0.473E-01
DAV:   8    -0.192084425981E+03    0.24526E-02   -0.36639E-03 11360   0.466E-01    0.691E-02
DAV:   9    -0.192084382459E+03    0.43522E-04   -0.34036E-04  9000   0.715E-02
  15 F= -.19208438E+03 E0= -.19199362E+03  d E =-.825100E-01
       N       E                     dE             d eps       ncg     rms          rms(c)
DAV:   1    -0.192090708694E+03   -0.62827E-02   -0.19386E+00  8160   0.302E+00    0.370E-01
DAV:   2    -0.192095049117E+03   -0.43404E-02   -0.58836E-02 11360   0.922E-01    0.530E-01
DAV:   3    -0.192093828145E+03    0.12210E-02   -0.11886E-02 11960   0.856E-01    0.449E-01
DAV:   4    -0.192092173789E+03    0.16544E-02   -0.45177E-03 11480   0.535E-01    0.272E-01
DAV:   5    -0.192091758896E+03    0.41489E-03   -0.31303E-03 10880   0.457E-01    0.218E-01
DAV:   6    -0.192091391987E+03    0.36691E-03   -0.17032E-03 12800   0.276E-01    0.128E-01
DAV:   7    -0.192091341732E+03    0.50255E-04   -0.78568E-04  9280   0.209E-01
  16 F= -.19209134E+03 E0= -.19200262E+03  d E =-.695927E-02
       N       E                     dE             d eps       ncg     rms          rms(c)
DAV:   1    -0.192124742922E+03   -0.33351E-01   -0.16842E+01  8160   0.885E+00    0.108E+00
DAV:   2    -0.192214098832E+03   -0.89356E-01   -0.62433E-01 11440   0.335E+00    0.262E+00
DAV:   3    -0.192157470081E+03    0.56629E-01   -0.18769E-01 12240   0.312E+00    0.104E+00
DAV:   4    -0.192151752677E+03    0.57174E-02   -0.37456E-02 12120   0.137E+00    0.880E-01
DAV:   5    -0.192142376102E+03    0.93766E-02   -0.22435E-02 12360   0.124E+00    0.384E-01
DAV:   6    -0.192141836692E+03    0.53941E-03   -0.86767E-03 12200   0.554E-01    0.316E-01
DAV:   7    -0.192141553118E+03    0.28357E-03   -0.55514E-03 12360   0.557E-01    0.363E-01
DAV:   8    -0.192140156445E+03    0.13967E-02   -0.22554E-03 11040   0.384E-01    0.714E-02
DAV:   9    -0.192140096018E+03    0.60427E-04   -0.23638E-04  6720   0.708E-02
  17 F= -.19214010E+03 E0= -.19205172E+03  d E =-.487543E-01
       N       E                     dE             d eps       ncg     rms          rms(c)
DAV:   1    -0.192147294998E+03   -0.71386E-02   -0.47733E-01  8160   0.151E+00    0.188E-01
DAV:   2    -0.192148089100E+03   -0.79410E-03   -0.13946E-02 11960   0.420E-01    0.234E-01
DAV:   3    -0.192148015938E+03    0.73162E-04   -0.28318E-03 12360   0.421E-01    0.231E-01
DAV:   4    -0.192147539025E+03    0.47691E-03   -0.13040E-03 10080   0.283E-01    0.137E-01
DAV:   5    -0.192147432020E+03    0.10700E-03   -0.72056E-04 10120   0.227E-01    0.102E-01
DAV:   6    -0.192147343038E+03    0.88982E-04   -0.30555E-04  9040   0.129E-01
  18 F= -.19214734E+03 E0= -.19205990E+03  d E =-.724702E-02
       N       E                     dE             d eps       ncg     rms          rms(c)
DAV:   1    -0.192154699295E+03   -0.72673E-02   -0.39093E-01  8160   0.135E+00    0.159E-01
DAV:   2    -0.192155936957E+03   -0.12377E-02   -0.12914E-02 11080   0.414E-01    0.234E-01
DAV:   3    -0.192155445392E+03    0.49157E-03   -0.24932E-03 12400   0.398E-01    0.145E-01
DAV:   4    -0.192155211379E+03    0.23401E-03   -0.48323E-04  8840   0.165E-01    0.734E-02
DAV:   5    -0.192155268959E+03   -0.57580E-04   -0.36156E-04  9160   0.148E-01
  19 F= -.19215527E+03 E0= -.19206840E+03  d E =-.792592E-02
       N       E                     dE             d eps       ncg     rms          rms(c)
DAV:   1    -0.192146092832E+03    0.91185E-02   -0.43048E-01  8160   0.142E+00    0.174E-01
DAV:   2    -0.192148925531E+03   -0.28327E-02   -0.16320E-02 12360   0.591E-01    0.456E-01
DAV:   3    -0.192146850300E+03    0.20752E-02   -0.49175E-03 12400   0.550E-01    0.160E-01
DAV:   4    -0.192146733027E+03    0.11727E-03   -0.91632E-04  9760   0.206E-01    0.125E-01
DAV:   5    -0.192146576259E+03    0.15677E-03   -0.46285E-04  8880   0.178E-01    0.702E-02
DAV:   6    -0.192146533349E+03    0.42910E-04   -0.21503E-04  8080   0.945E-02
  20 F= -.19214653E+03 E0= -.19205901E+03  d E =0.873561E-02
       N       E                     dE             d eps       ncg     rms          rms(c)
DAV:   1    -0.192122814319E+03    0.23762E-01   -0.26900E+00  8160   0.354E+00    0.452E-01
DAV:   2    -0.192136711205E+03   -0.13897E-01   -0.97219E-02 11720   0.134E+00    0.101E+00
DAV:   3    -0.192127431407E+03    0.92798E-02   -0.28273E-02 12440   0.129E+00    0.431E-01
DAV:   4    -0.192127303841E+03    0.12757E-03   -0.72499E-03 11400   0.605E-01    0.422E-01
DAV:   5    -0.192125174924E+03    0.21289E-02   -0.37550E-03 12160   0.503E-01    0.125E-01
DAV:   6    -0.192125206962E+03   -0.32038E-04   -0.12223E-03 11640   0.157E-01    0.940E-02
DAV:   7    -0.192125004088E+03    0.20287E-03   -0.44956E-04 11400   0.857E-02    0.255E-02
DAV:   8    -0.192125007676E+03   -0.35886E-05   -0.56837E-05  6880   0.435E-02
  21 F= -.19212501E+03 E0= -.19203632E+03  d E =0.215257E-01
       N       E                     dE             d eps       ncg     rms          rms(c)
DAV:   1    -0.192108194771E+03    0.16809E-01   -0.18728E+00  8160   0.296E+00    0.364E-01
DAV:   2    -0.192115900957E+03   -0.77062E-02   -0.58400E-02 11800   0.106E+00    0.757E-01
DAV:   3    -0.192110966628E+03    0.49343E-02   -0.16992E-02 12520   0.100E+00    0.371E-01
DAV:   4    -0.192111004593E+03   -0.37965E-04   -0.53278E-03 11440   0.528E-01    0.370E-01
DAV:   5    -0.192109428188E+03    0.15764E-02   -0.30161E-03 10720   0.438E-01    0.116E-01
DAV:   6    -0.192109501892E+03   -0.73705E-04   -0.10223E-03 10840   0.178E-01    0.125E-01
DAV:   7    -0.192109429255E+03    0.72637E-04   -0.71385E-04  9800   0.210E-01
  22 F= -.19210943E+03 E0= -.19201953E+03  d E =0.155784E-01
       N       E                     dE             d eps       ncg     rms          rms(c)
DAV:   1    -0.192104619362E+03    0.48825E-02   -0.26876E-01  8160   0.113E+00    0.141E-01
DAV:   2    -0.192105266196E+03   -0.64683E-03   -0.80725E-03 11160   0.327E-01    0.193E-01
DAV:   3    -0.192105104466E+03    0.16173E-03   -0.19895E-03 11760   0.337E-01    0.167E-01
DAV:   4    -0.192104990369E+03    0.11410E-03   -0.87390E-04 10360   0.217E-01    0.138E-01
DAV:   5    -0.192104826397E+03    0.16397E-03   -0.52522E-04  8760   0.170E-01    0.693E-02
DAV:   6    -0.192104807420E+03    0.18977E-04   -0.20718E-04  7960   0.917E-02
  23 F= -.19210481E+03 E0= -.19201452E+03  d E =0.462183E-02
       N       E                     dE             d eps       ncg     rms          rms(c)
DAV:   1    -0.192102582139E+03    0.22443E-02   -0.11347E+00  8160   0.232E+00    0.326E-01
DAV:   2    -0.192110328255E+03   -0.77461E-02   -0.41790E-02 11840   0.110E+00    0.832E-01
DAV:   3    -0.192103442500E+03    0.68858E-02   -0.14824E-02 12280   0.964E-01    0.247E-01
DAV:   4    -0.192103469574E+03   -0.27074E-04   -0.27907E-03 10200   0.398E-01    0.267E-01
DAV:   5    -0.192102704775E+03    0.76480E-03   -0.20342E-03 10360   0.376E-01    0.129E-01
DAV:   6    -0.192102793741E+03   -0.88966E-04   -0.10435E-03 10200   0.220E-01    0.171E-01
DAV:   7    -0.192102542336E+03    0.25141E-03   -0.73412E-04  8680   0.194E-01    0.664E-02
DAV:   8    -0.192102489258E+03    0.53078E-04   -0.97654E-05  6160   0.607E-02
  24 F= -.19210249E+03 E0= -.19201118E+03  d E =0.231816E-02
       N       E                     dE             d eps       ncg     rms          rms(c)
DAV:   1    -0.192110057382E+03   -0.75150E-02   -0.62532E-01  8160   0.169E+00    0.231E-01
DAV:   2    -0.192116484456E+03   -0.64271E-02   -0.31082E-02 11240   0.948E-01    0.736E-01
DAV:   3    -0.192111182999E+03    0.53015E-02   -0.12021E-02 12240   0.783E-01    0.198E-01
DAV:   4    -0.192111144541E+03    0.38458E-04   -0.18294E-03  9640   0.307E-01    0.185E-01
DAV:   5    -0.192110765929E+03    0.37861E-03   -0.10100E-03 10240   0.245E-01    0.850E-02
DAV:   6    -0.192110780393E+03   -0.14464E-04   -0.41008E-04  9920   0.131E-01
  25 F= -.19211078E+03 E0= -.19202012E+03  d E =-.829114E-02
       N       E                     dE             d eps       ncg     rms          rms(c)
DAV:   1    -0.192115300650E+03   -0.45347E-02   -0.24073E-01  8160   0.106E+00    0.149E-01
DAV:   2    -0.192118198080E+03   -0.28974E-02   -0.12152E-02 12720   0.600E-01    0.504E-01
DAV:   3    -0.192115719406E+03    0.24787E-02   -0.48610E-03 11560   0.514E-01    0.109E-01
DAV:   4    -0.192115807388E+03   -0.87982E-04   -0.69502E-04  8600   0.186E-01
  26 F= -.19211581E+03 E0= -.19202484E+03  d E =-.502699E-02
       N       E                     dE             d eps       ncg     rms          rms(c)
DAV:   1    -0.192117616543E+03   -0.18971E-02   -0.43887E-02  8160   0.473E-01    0.889E-02
DAV:   2    -0.192118583164E+03   -0.96662E-03   -0.31292E-03 12720   0.340E-01    0.309E-01
DAV:   3    -0.192117610798E+03    0.97237E-03   -0.16886E-03 10160   0.305E-01    0.517E-02
DAV:   4    -0.192117662583E+03   -0.51785E-04   -0.18565E-04  6440   0.943E-02
  27 F= -.19211766E+03 E0= -.19202714E+03  d E =-.185519E-02
       N       E                     dE             d eps       ncg     rms          rms(c)
DAV:   1    -0.192123821382E+03   -0.62106E-02   -0.51409E-01  8160   0.154E+00    0.204E-01
DAV:   2    -0.192128655180E+03   -0.48338E-02   -0.22707E-02 12400   0.737E-01    0.649E-01
DAV:   3    -0.192124677116E+03    0.39781E-02   -0.93128E-03 12480   0.680E-01    0.171E-01
DAV:   4    -0.192124629164E+03    0.47952E-04   -0.12179E-03  9840   0.233E-01    0.149E-01
DAV:   5    -0.192124387144E+03    0.24202E-03   -0.72224E-04 10200   0.216E-01    0.782E-02
DAV:   6    -0.192124357163E+03    0.29981E-04   -0.28852E-04  8000   0.103E-01
  28 F= -.19212436E+03 E0= -.19203477E+03  d E =-.669458E-02
       N       E                     dE             d eps       ncg     rms          rms(c)
DAV:   1    -0.192134531808E+03   -0.10145E-01   -0.22693E+00  8160   0.322E+00    0.405E-01
DAV:   2    -0.192153212190E+03   -0.18680E-01   -0.97124E-02 12320   0.152E+00    0.125E+00
DAV:   3    -0.192139114700E+03    0.14097E-01   -0.34897E-02 12560   0.132E+00    0.348E-01
DAV:   4    -0.192138902052E+03    0.21265E-03   -0.49777E-03 11200   0.517E-01    0.322E-01
DAV:   5    -0.192137674226E+03    0.12278E-02   -0.28895E-03 12680   0.437E-01    0.131E-01
DAV:   6    -0.192137673934E+03    0.29242E-06   -0.10792E-03 10560   0.167E-01    0.980E-02
DAV:   7    -0.192137565471E+03    0.10846E-03   -0.51283E-04 10760   0.139E-01    0.883E-02
DAV:   8    -0.192137486459E+03    0.79012E-04   -0.15084E-04  7120   0.103E-01
  29 F= -.19213749E+03 E0= -.19204926E+03  d E =-.131293E-01
       N       E                     dE             d eps       ncg     rms          rms(c)
DAV:   1    -0.192141115384E+03   -0.35499E-02   -0.20796E-01  8160   0.100E+00    0.141E-01
DAV:   2    -0.192141950090E+03   -0.83471E-03   -0.80156E-03 11320   0.362E-01    0.285E-01
DAV:   3    -0.192141381201E+03    0.56889E-03   -0.26718E-03 12320   0.368E-01    0.158E-01
DAV:   4    -0.192141092889E+03    0.28831E-03   -0.52177E-04  8400   0.140E-01    0.501E-02
DAV:   5    -0.192141069986E+03    0.22902E-04   -0.19389E-04  6560   0.700E-02
  30 F= -.19214107E+03 E0= -.19205303E+03  d E =-.358353E-02
       N       E                     dE             d eps       ncg     rms          rms(c)
DAV:   1    -0.192150323158E+03   -0.92303E-02   -0.19726E+00  8160   0.302E+00    0.376E-01
DAV:   2    -0.192162941031E+03   -0.12618E-01   -0.74042E-02 12320   0.128E+00    0.975E-01
DAV:   3    -0.192153993681E+03    0.89473E-02   -0.21952E-02 12560   0.114E+00    0.351E-01
DAV:   4    -0.192153871924E+03    0.12176E-03   -0.45781E-03 11680   0.513E-01    0.336E-01
DAV:   5    -0.192152619021E+03    0.12529E-02   -0.29923E-03 12360   0.432E-01    0.135E-01
DAV:   6    -0.192152885010E+03   -0.26599E-03   -0.14356E-03 10960   0.262E-01    0.198E-01
DAV:   7    -0.192152544329E+03    0.34068E-03   -0.98840E-04 10320   0.264E-01    0.935E-02
DAV:   8    -0.192152421312E+03    0.12302E-03   -0.17863E-04  7200   0.891E-02    0.165E-02
DAV:   9    -0.192152422811E+03   -0.14989E-05   -0.38390E-05  6960   0.218E-02
  31 F= -.19215242E+03 E0= -.19206544E+03  d E =-.113528E-01
       N       E                     dE             d eps       ncg     rms          rms(c)
DAV:   1    -0.192154600777E+03   -0.21795E-02   -0.68680E-02  8160   0.566E-01    0.741E-02
DAV:   2    -0.192154985061E+03   -0.38428E-03   -0.22293E-03 10440   0.239E-01    0.177E-01
DAV:   3    -0.192154658230E+03    0.32683E-03   -0.67644E-04  9640   0.214E-01    0.577E-02
DAV:   4    -0.192154657691E+03    0.53855E-06   -0.10320E-04  5840   0.871E-02
  32 F= -.19215466E+03 E0= -.19206769E+03  d E =-.223488E-02
       N       E                     dE             d eps       ncg     rms          rms(c)
DAV:   1    -0.192153151939E+03    0.15063E-02   -0.86800E-02  8160   0.651E-01    0.805E-02
DAV:   2    -0.192153449804E+03   -0.29787E-03   -0.33615E-03 11160   0.191E-01    0.116E-01
DAV:   3    -0.192153356813E+03    0.92991E-04   -0.71920E-04 10920   0.204E-01
  33 F= -.19215336E+03 E0= -.19206690E+03  d E =0.130088E-02
       N       E                     dE             d eps       ncg     rms          rms(c)
DAV:   1    -0.192156631094E+03   -0.31813E-02   -0.22758E-01  8160   0.103E+00    0.133E-01
DAV:   2    -0.192156989922E+03   -0.35883E-03   -0.77505E-03 11480   0.285E-01    0.136E-01
DAV:   3    -0.192157063113E+03   -0.73191E-04   -0.13914E-03 10920   0.288E-01    0.173E-01
DAV:   4    -0.192156776967E+03    0.28615E-03   -0.66986E-04  9240   0.215E-01    0.880E-02
DAV:   5    -0.192156761127E+03    0.15840E-04   -0.34085E-04  8520   0.151E-01
  34 F= -.19215676E+03 E0= -.19207086E+03  d E =-.340431E-02
       N       E                     dE             d eps       ncg     rms          rms(c)
DAV:   1    -0.192158252304E+03   -0.14753E-02   -0.29183E-02  8160   0.410E-01    0.772E-02
DAV:   2    -0.192158730163E+03   -0.47786E-03   -0.19437E-03 12320   0.255E-01    0.220E-01
DAV:   3    -0.192158212778E+03    0.51739E-03   -0.10871E-03  9400   0.250E-01    0.666E-02
DAV:   4    -0.192158196752E+03    0.16026E-04   -0.14657E-04  6120   0.816E-02
  35 F= -.19215820E+03 E0= -.19207177E+03  d E =-.143562E-02
       N       E                     dE             d eps       ncg     rms          rms(c)
DAV:   1    -0.192160280793E+03   -0.20680E-02   -0.14987E-01  8160   0.859E-01    0.118E-01
DAV:   2    -0.192160401065E+03   -0.12027E-03   -0.55172E-03 10720   0.194E-01    0.775E-02
DAV:   3    -0.192160468873E+03   -0.67808E-04   -0.73214E-04 10040   0.168E-01
  36 F= -.19216047E+03 E0= -.19207409E+03  d E =-.227212E-02
       N       E                     dE             d eps       ncg     rms          rms(c)
DAV:   1    -0.192166603796E+03   -0.62027E-02   -0.37052E-01  8160   0.135E+00    0.207E-01
DAV:   2    -0.192168050470E+03   -0.14467E-02   -0.12293E-02 11880   0.494E-01    0.418E-01
DAV:   3    -0.192166700496E+03    0.13500E-02   -0.48434E-03 12240   0.529E-01    0.216E-01
DAV:   4    -0.192166212356E+03    0.48814E-03   -0.11468E-03  9880   0.202E-01    0.827E-02
DAV:   5    -0.192166107826E+03    0.10453E-03   -0.62230E-04 10600   0.115E-01    0.634E-02
DAV:   6    -0.192166085338E+03    0.22487E-04   -0.26472E-04  8960   0.118E-01
  37 F= -.19216609E+03 E0= -.19207986E+03  d E =-.561647E-02
       N       E                     dE             d eps       ncg     rms          rms(c)
DAV:   1    -0.192170450261E+03   -0.43424E-02   -0.16973E-01  8160   0.893E-01    0.112E-01
DAV:   2    -0.192170792434E+03   -0.34217E-03   -0.51281E-03 10560   0.268E-01    0.132E-01
DAV:   3    -0.192170734592E+03    0.57842E-04   -0.95108E-04 11120   0.246E-01
  38 F= -.19217073E+03 E0= -.19208472E+03  d E =-.464925E-02
       N       E                     dE             d eps       ncg     rms          rms(c)
DAV:   1    -0.192169606467E+03    0.11860E-02   -0.21127E-02  8160   0.363E-01    0.922E-02
DAV:   2    -0.192171412685E+03   -0.18062E-02   -0.33562E-03 11640   0.466E-01    0.415E-01
DAV:   3    -0.192169550217E+03    0.18625E-02   -0.19871E-03 10080   0.395E-01    0.379E-02
DAV:   4    -0.192169555839E+03   -0.56213E-05   -0.78268E-05  5920   0.445E-02
  39 F= -.19216956E+03 E0= -.19208378E+03  d E =0.117875E-02
       N       E                     dE             d eps       ncg     rms          rms(c)
DAV:   1    -0.192164810003E+03    0.47402E-02   -0.28581E-01  8160   0.117E+00    0.169E-01
DAV:   2    -0.192165519575E+03   -0.70957E-03   -0.78605E-03 11880   0.381E-01    0.293E-01
DAV:   3    -0.192164873584E+03    0.64599E-03   -0.27469E-03 12280   0.431E-01    0.188E-01
DAV:   4    -0.192164726466E+03    0.14712E-03   -0.11088E-03  9920   0.242E-01    0.158E-01
DAV:   5    -0.192164453040E+03    0.27343E-03   -0.66864E-04  9000   0.213E-01    0.647E-02
DAV:   6    -0.192164432880E+03    0.20160E-04   -0.19444E-04  7480   0.926E-02
  40 F= -.19216443E+03 E0= -.19207873E+03  d E =0.512296E-02
       N       E                     dE             d eps       ncg     rms          rms(c)
DAV:   1    -0.192174797854E+03   -0.10345E-01   -0.80972E-01  8160   0.197E+00    0.269E-01
DAV:   2    -0.192177464518E+03   -0.26667E-02   -0.23756E-02 11680   0.673E-01    0.499E-01
DAV:   3    -0.192175323553E+03    0.21410E-02   -0.72111E-03 11880   0.702E-01    0.276E-01
DAV:   4    -0.192174560373E+03    0.76318E-03   -0.16097E-03 11320   0.293E-01    0.136E-01
DAV:   5    -0.192174552934E+03    0.74395E-05   -0.12665E-03 10800   0.286E-01    0.159E-01
DAV:   6    -0.192174319182E+03    0.23375E-03   -0.72058E-04  9640   0.208E-01    0.835E-02
DAV:   7    -0.192174294706E+03    0.24475E-04   -0.30467E-04  8440   0.135E-01
  41 F= -.19217429E+03 E0= -.19208872E+03  d E =-.986183E-02
       N       E                     dE             d eps       ncg     rms          rms(c)
DAV:   1    -0.192179168601E+03   -0.48494E-02   -0.23630E-01  8160   0.105E+00    0.127E-01
DAV:   2    -0.192179821367E+03   -0.65277E-03   -0.70229E-03 11560   0.317E-01    0.195E-01
DAV:   3    -0.192179553031E+03    0.26834E-03   -0.15342E-03 11320   0.307E-01    0.140E-01
DAV:   4    -0.192179421911E+03    0.13112E-03   -0.42095E-04  8560   0.173E-01    0.904E-02
DAV:   5    -0.192179356378E+03    0.65532E-04   -0.28705E-04  8520   0.151E-01
  42 F= -.19217936E+03 E0= -.19209385E+03  d E =-.506167E-02
       N       E                     dE             d eps       ncg     rms          rms(c)
DAV:   1    -0.192184549422E+03   -0.51275E-02   -0.16429E-01  8160   0.879E-01    0.136E-01
DAV:   2    -0.192185725637E+03   -0.11762E-02   -0.61969E-03 11080   0.457E-01    0.317E-01
DAV:   3    -0.192184580931E+03    0.11447E-02   -0.22555E-03 11840   0.386E-01    0.975E-02
DAV:   4    -0.192184714727E+03   -0.13380E-03   -0.58975E-04  8920   0.199E-01    0.147E-01
DAV:   5    -0.192184474958E+03    0.23977E-03   -0.37789E-04  8520   0.174E-01    0.432E-02
DAV:   6    -0.192184490629E+03   -0.15671E-04   -0.11275E-04  6160   0.746E-02
  43 F= -.19218449E+03 E0= -.19209907E+03  d E =-.513425E-02
       N       E                     dE             d eps       ncg     rms          rms(c)
DAV:   1    -0.192189825722E+03   -0.53508E-02   -0.19479E-01  8160   0.957E-01    0.127E-01
DAV:   2    -0.192190890139E+03   -0.10644E-02   -0.65043E-03 12040   0.392E-01    0.294E-01
DAV:   3    -0.192190005318E+03    0.88482E-03   -0.21178E-03 12120   0.356E-01    0.110E-01
DAV:   4    -0.192190017077E+03   -0.11759E-04   -0.44875E-04  8480   0.167E-01
  44 F= -.19219002E+03 E0= -.19210450E+03  d E =-.552645E-02
       N       E                     dE             d eps       ncg     rms          rms(c)
DAV:   1    -0.192190967530E+03   -0.96221E-03   -0.10854E-02  8160   0.262E-01    0.646E-02
DAV:   2    -0.192191367124E+03   -0.39959E-03   -0.11296E-03 11080   0.245E-01    0.185E-01
DAV:   3    -0.192190939121E+03    0.42800E-03   -0.56005E-04  9000   0.215E-01    0.478E-02
DAV:   4    -0.192190948639E+03   -0.95177E-05   -0.10154E-04  6480   0.794E-02
  45 F= -.19219095E+03 E0= -.19210559E+03  d E =-.931562E-03
       N       E                     dE             d eps       ncg     rms          rms(c)
DAV:   1    -0.192201957939E+03   -0.11019E-01   -0.73619E-01  8160   0.185E+00    0.240E-01
DAV:   2    -0.192204856229E+03   -0.28983E-02   -0.22425E-02 11720   0.649E-01    0.463E-01
DAV:   3    -0.192202735655E+03    0.21206E-02   -0.67046E-03 12400   0.630E-01    0.225E-01
DAV:   4    -0.192202686044E+03    0.49611E-04   -0.17153E-03 10240   0.329E-01    0.210E-01
DAV:   5    -0.192202221348E+03    0.46470E-03   -0.11048E-03 10240   0.297E-01    0.105E-01
DAV:   6    -0.192202163913E+03    0.57434E-04   -0.46656E-04  9480   0.146E-01
  46 F= -.19220216E+03 E0= -.19211646E+03  d E =-.112153E-01
       N       E                     dE             d eps       ncg     rms          rms(c)
DAV:   1    -0.192208002732E+03   -0.57814E-02   -0.16862E-01  8160   0.893E-01    0.139E-01
DAV:   2    -0.192210050467E+03   -0.20477E-02   -0.72425E-03 11000   0.527E-01    0.420E-01
DAV:   3    -0.192208072579E+03    0.19779E-02   -0.27982E-03 11920   0.454E-01    0.851E-02
DAV:   4    -0.192208191017E+03   -0.11844E-03   -0.42736E-04  8600   0.181E-01    0.123E-01
DAV:   5    -0.192207997937E+03    0.19308E-03   -0.27086E-04  8600   0.151E-01    0.305E-02
DAV:   6    -0.192208014003E+03   -0.16066E-04   -0.72055E-05  6320   0.482E-02
  47 F= -.19220801E+03 E0= -.19212224E+03  d E =-.585009E-02
       N       E                     dE             d eps       ncg     rms          rms(c)
DAV:   1    -0.192175517409E+03    0.32481E-01   -0.52536E+00  8160   0.494E+00    0.654E-01
DAV:   2    -0.192204728107E+03   -0.29211E-01   -0.17866E-01 11240   0.206E+00    0.159E+00
DAV:   3    -0.192182085482E+03    0.22643E-01   -0.67130E-02 12240   0.192E+00    0.596E-01
DAV:   4    -0.192182433859E+03   -0.34838E-03   -0.13880E-02 12440   0.943E-01    0.620E-01
DAV:   5    -0.192177890983E+03    0.45429E-02   -0.83681E-03 11920   0.793E-01    0.242E-01
DAV:   6    -0.192178066563E+03   -0.17558E-03   -0.32384E-03 11520   0.406E-01    0.273E-01
DAV:   7    -0.192177672832E+03    0.39373E-03   -0.23319E-03 11560   0.430E-01    0.211E-01
DAV:   8    -0.192177081338E+03    0.59149E-03   -0.78205E-04  9720   0.211E-01    0.277E-02
DAV:   9    -0.192177085163E+03   -0.38248E-05   -0.80313E-05  6800   0.329E-02
  48 F= -.19217709E+03 E0= -.19209139E+03  d E =0.309288E-01
       N       E                     dE             d eps       ncg     rms          rms(c)
DAV:   1    -0.192147011502E+03    0.30070E-01   -0.93479E+00  8160   0.662E+00    0.820E-01
DAV:   2    -0.192181531533E+03   -0.34520E-01   -0.27217E-01 11480   0.231E+00    0.165E+00
DAV:   3    -0.192158674820E+03    0.22857E-01   -0.95678E-02 12400   0.223E+00    0.813E-01
DAV:   4    -0.192158314316E+03    0.36050E-03   -0.25254E-02 12320   0.118E+00    0.811E-01
DAV:   5    -0.192151159122E+03    0.71552E-02   -0.15760E-02 12200   0.103E+00    0.348E-01
DAV:   6    -0.192152371051E+03   -0.12119E-02   -0.72866E-03 11760   0.660E-01    0.482E-01
DAV:   7    -0.192150257125E+03    0.21139E-02   -0.50915E-03 11640   0.602E-01    0.185E-01
DAV:   8    -0.192149701614E+03    0.55551E-03   -0.90730E-04 10440   0.180E-01    0.356E-02
DAV:   9    -0.192149697878E+03    0.37361E-05   -0.13045E-04  7400   0.396E-02
  49 F= -.19214970E+03 E0= -.19206320E+03  d E =0.273873E-01
       N       E                     dE             d eps       ncg     rms          rms(c)
DAV:   1    -0.192137700977E+03    0.12001E-01   -0.85512E+00  8160   0.638E+00    0.747E-01
DAV:   2    -0.192157359560E+03   -0.19659E-01   -0.22823E-01 11120   0.189E+00    0.109E+00
DAV:   3    -0.192150264454E+03    0.70951E-02   -0.51801E-02 12000   0.181E+00    0.782E-01
DAV:   4    -0.192145970628E+03    0.42938E-02   -0.15339E-02 11840   0.101E+00    0.579E-01
DAV:   5    -0.192143049455E+03    0.29212E-02   -0.11524E-02 11080   0.893E-01    0.366E-01
DAV:   6    -0.192141962182E+03    0.10873E-02   -0.46705E-03 11960   0.437E-01    0.164E-01
DAV:   7    -0.192141660007E+03    0.30217E-03   -0.17747E-03 10880   0.242E-01    0.170E-01
DAV:   8    -0.192141389830E+03    0.27018E-03   -0.68940E-04  9000   0.175E-01    0.450E-02
DAV:   9    -0.192141374752E+03    0.15078E-04   -0.86001E-05  6320   0.473E-02
  50 F= -.19214137E+03 E0= -.19205500E+03  d E =0.832313E-02
       N       E                     dE             d eps       ncg     rms          rms(c)
DAV:   1    -0.192144987646E+03   -0.35978E-02   -0.46684E+00  8160   0.468E+00    0.558E-01
DAV:   2    -0.192163446024E+03   -0.18458E-01   -0.13678E-01 11880   0.154E+00    0.123E+00
DAV:   3    -0.192152164387E+03    0.11282E-01   -0.49574E-02 12360   0.154E+00    0.608E-01
DAV:   4    -0.192149763077E+03    0.24013E-02   -0.90536E-03 12280   0.634E-01    0.405E-01
DAV:   5    -0.192148343222E+03    0.14199E-02   -0.63419E-03 12200   0.630E-01    0.269E-01
DAV:   6    -0.192148337345E+03    0.58770E-05   -0.34044E-03 11880   0.418E-01    0.255E-01
DAV:   7    -0.192147750662E+03    0.58668E-03   -0.19049E-03 10640   0.361E-01    0.139E-01
DAV:   8    -0.192147489904E+03    0.26076E-03   -0.39303E-04  9320   0.143E-01    0.256E-02
DAV:   9    -0.192147489410E+03    0.49387E-06   -0.60192E-05  6920   0.298E-02
  51 F= -.19214749E+03 E0= -.19206073E+03  d E =-.611466E-02
       N       E                     dE             d eps       ncg     rms          rms(c)
DAV:   1    -0.192149917439E+03   -0.24275E-02   -0.28016E-01  8160   0.114E+00    0.139E-01
DAV:   2    -0.192150897503E+03   -0.98006E-03   -0.93299E-03 11240   0.418E-01    0.248E-01
DAV:   3    -0.192150440762E+03    0.45674E-03   -0.22890E-03 12640   0.369E-01    0.160E-01
DAV:   4    -0.192150325895E+03    0.11487E-03   -0.76335E-04  9120   0.200E-01    0.125E-01
DAV:   5    -0.192150186484E+03    0.13941E-03   -0.50593E-04  8800   0.169E-01    0.648E-02
DAV:   6    -0.192150173682E+03    0.12802E-04   -0.19467E-04  7240   0.927E-02
  52 F= -.19215017E+03 E0= -.19206345E+03  d E =-.268427E-02
       N       E                     dE             d eps       ncg     rms          rms(c)
DAV:   1    -0.192151010026E+03   -0.82354E-03   -0.32094E-02  8160   0.397E-01    0.636E-02
DAV:   2    -0.192151606698E+03   -0.59667E-03   -0.20861E-03 12520   0.270E-01    0.223E-01
DAV:   3    -0.192151050325E+03    0.55637E-03   -0.89303E-04  9480   0.238E-01    0.403E-02
DAV:   4    -0.192151074157E+03   -0.23832E-04   -0.10767E-04  5840   0.755E-02
  53 F= -.19215107E+03 E0= -.19206409E+03  d E =-.900475E-03
       N       E                     dE             d eps       ncg     rms          rms(c)
DAV:   1    -0.192152213788E+03   -0.11635E-02   -0.51488E-02  8160   0.491E-01    0.715E-02
DAV:   2    -0.192152613013E+03   -0.39923E-03   -0.20374E-03 12600   0.218E-01    0.193E-01
DAV:   3    -0.192152257138E+03    0.35588E-03   -0.78529E-04  9360   0.213E-01    0.593E-02
DAV:   4    -0.192152246546E+03    0.10591E-04   -0.11951E-04  5840   0.710E-02
  54 F= -.19215225E+03 E0= -.19206530E+03  d E =-.117239E-02
       N       E                     dE             d eps       ncg     rms          rms(c)
DAV:   1    -0.192153705965E+03   -0.14488E-02   -0.82664E-02  8160   0.624E-01    0.889E-02
DAV:   2    -0.192154305109E+03   -0.59914E-03   -0.31340E-03 12520   0.272E-01    0.240E-01
DAV:   3    -0.192153761572E+03    0.54354E-03   -0.13887E-03 10280   0.264E-01    0.738E-02
DAV:   4    -0.192153737195E+03    0.24378E-04   -0.14907E-04  6040   0.827E-02
  55 F= -.19215374E+03 E0= -.19206677E+03  d E =-.149065E-02
       N       E                     dE             d eps       ncg     rms          rms(c)
DAV:   1    -0.192154499177E+03   -0.73760E-03   -0.18113E-02  8160   0.312E-01    0.757E-02
DAV:   2    -0.192155456634E+03   -0.95746E-03   -0.20122E-03 12400   0.342E-01    0.302E-01
DAV:   3    -0.192154453422E+03    0.10032E-02   -0.12414E-03 10040   0.303E-01    0.377E-02
DAV:   4    -0.192154485591E+03   -0.32169E-04   -0.99208E-05  5920   0.696E-02
  56 F= -.19215449E+03 E0= -.19206748E+03  d E =-.748397E-03
       N       E                     dE             d eps       ncg     rms          rms(c)
DAV:   1    -0.192156034357E+03   -0.15809E-02   -0.76053E-02  8160   0.602E-01    0.896E-02
DAV:   2    -0.192156525789E+03   -0.49143E-03   -0.29435E-03 12440   0.271E-01    0.213E-01
DAV:   3    -0.192156100347E+03    0.42544E-03   -0.12384E-03 10320   0.261E-01    0.902E-02
DAV:   4    -0.192156072996E+03    0.27350E-04   -0.27530E-04  7880   0.116E-01
  57 F= -.19215607E+03 E0= -.19206899E+03  d E =-.158741E-02
       N       E                     dE             d eps       ncg     rms          rms(c)
DAV:   1    -0.192156741272E+03   -0.64092E-03   -0.14392E-02  8160   0.287E-01    0.675E-02
DAV:   2    -0.192157299052E+03   -0.55778E-03   -0.13550E-03 11520   0.273E-01    0.229E-01
DAV:   3    -0.192156704904E+03    0.59415E-03   -0.84846E-04  8920   0.249E-01    0.490E-02
DAV:   4    -0.192156711282E+03   -0.63778E-05   -0.94423E-05  5720   0.778E-02
  58 F= -.19215671E+03 E0= -.19206998E+03  d E =-.638285E-03
       N       E                     dE             d eps       ncg     rms          rms(c)
DAV:   1    -0.192158939484E+03   -0.22346E-02   -0.12847E-01  8160   0.778E-01    0.111E-01
DAV:   2    -0.192159641456E+03   -0.70197E-03   -0.43700E-03 12080   0.305E-01    0.256E-01
DAV:   3    -0.192159053755E+03    0.58770E-03   -0.18128E-03 11000   0.314E-01    0.113E-01
DAV:   4    -0.192158996614E+03    0.57141E-04   -0.39137E-04  8400   0.136E-01
  59 F= -.19215900E+03 E0= -.19207196E+03  d E =-.228533E-02
       N       E                     dE             d eps       ncg     rms          rms(c)
DAV:   1    -0.192158140996E+03    0.91276E-03   -0.15180E-02  8160   0.313E-01    0.615E-02
DAV:   2    -0.192158666155E+03   -0.52516E-03   -0.14982E-03 12080   0.277E-01    0.198E-01
DAV:   3    -0.192158121740E+03    0.54441E-03   -0.76499E-04  8760   0.234E-01    0.287E-02
DAV:   4    -0.192158142268E+03   -0.20527E-04   -0.72357E-05  5720   0.565E-02
  60 F= -.19215814E+03 E0= -.19207138E+03  d E =0.854347E-03
       N       E                     dE             d eps       ncg     rms          rms(c)
DAV:   1    -0.192158048874E+03    0.72867E-04   -0.27907E-02  8160   0.384E-01    0.853E-02
DAV:   2    -0.192157936062E+03    0.11281E-03   -0.16480E-03 10040   0.100E-01    0.490E-02
DAV:   3    -0.192157924472E+03    0.11590E-04   -0.25043E-04  6560   0.888E-02
  61 F= -.19215792E+03 E0= -.19207170E+03  d E =0.217795E-03
       N       E                     dE             d eps       ncg     rms          rms(c)
DAV:   1    -0.192160208712E+03   -0.22726E-02   -0.14136E-01  8160   0.825E-01    0.126E-01
DAV:   2    -0.192162073200E+03   -0.18645E-02   -0.64236E-03 12240   0.500E-01    0.398E-01
DAV:   3    -0.192160276949E+03    0.17963E-02   -0.28134E-03 11960   0.441E-01    0.980E-02
DAV:   4    -0.192160305744E+03   -0.28796E-04   -0.45834E-04  8320   0.164E-01
  62 F= -.19216031E+03 E0= -.19207327E+03  d E =-.238127E-02
       N       E                     dE             d eps       ncg     rms          rms(c)
DAV:   1    -0.192159627198E+03    0.64975E-03   -0.68891E-03  9320   0.230E-01    0.450E-02
DAV:   2    -0.192159943709E+03   -0.31651E-03   -0.82290E-04  9440   0.198E-01    0.173E-01
DAV:   3    -0.192159610192E+03    0.33352E-03   -0.54773E-04  8640   0.183E-01    0.302E-02
DAV:   4    -0.192159616863E+03   -0.66710E-05   -0.46048E-05  5840   0.455E-02
  63 F= -.19215962E+03 E0= -.19207323E+03  d E =0.688881E-03
       N       E                     dE             d eps       ncg     rms          rms(c)
DAV:   1    -0.192159952056E+03   -0.34186E-03   -0.41184E-02  8160   0.446E-01    0.893E-02
DAV:   2    -0.192160462304E+03   -0.51025E-03   -0.30695E-03 11800   0.280E-01    0.235E-01
DAV:   3    -0.192159943340E+03    0.51896E-03   -0.12307E-03  9960   0.263E-01    0.767E-02
DAV:   4    -0.192159890845E+03    0.52494E-04   -0.20680E-04  7600   0.881E-02
  64 F= -.19215989E+03 E0= -.19207366E+03  d E =-.273983E-03
       N       E                     dE             d eps       ncg     rms          rms(c)
DAV:   1    -0.192163421281E+03   -0.34779E-02   -0.15288E-01  8160   0.929E-01    0.213E-01
DAV:   2    -0.192163351544E+03    0.69737E-04   -0.82694E-03 11400   0.434E-01    0.321E-01
DAV:   3    -0.192162754827E+03    0.59672E-03   -0.40627E-03 11400   0.519E-01    0.242E-01
DAV:   4    -0.192162046759E+03    0.70807E-03   -0.15377E-03 10440   0.286E-01    0.976E-02
DAV:   5    -0.192162034690E+03    0.12068E-04   -0.74538E-04 10200   0.205E-01
  65 F= -.19216203E+03 E0= -.19207490E+03  d E =-.214384E-02
       N       E                     dE             d eps       ncg     rms          rms(c)
DAV:   1    -0.192165228219E+03   -0.31815E-02   -0.25403E-01  8160   0.109E+00    0.142E-01
DAV:   2    -0.192165766850E+03   -0.53863E-03   -0.70391E-03 11480   0.328E-01    0.209E-01
DAV:   3    -0.192165546394E+03    0.22046E-03   -0.18401E-03 11680   0.346E-01    0.174E-01
DAV:   4    -0.192165290553E+03    0.25584E-03   -0.57603E-04  8520   0.196E-01    0.954E-02
DAV:   5    -0.192165244183E+03    0.46370E-04   -0.44893E-04  8960   0.168E-01
  66 F= -.19216524E+03 E0= -.19207876E+03  d E =-.320949E-02
       N       E                     dE             d eps       ncg     rms          rms(c)
DAV:   1    -0.192166651964E+03   -0.13614E-02   -0.27315E-02  8160   0.373E-01    0.891E-02
DAV:   2    -0.192167660692E+03   -0.10087E-02   -0.28234E-03 12320   0.364E-01    0.321E-01
DAV:   3    -0.192166562412E+03    0.10983E-02   -0.16832E-03 10040   0.322E-01    0.482E-02
DAV:   4    -0.192166578484E+03   -0.16073E-04   -0.11817E-04  5680   0.805E-02
  67 F= -.19216658E+03 E0= -.19207982E+03  d E =-.133430E-02
       N       E                     dE             d eps       ncg     rms          rms(c)
DAV:   1    -0.192172024796E+03   -0.54624E-02   -0.34475E-01  8160   0.128E+00    0.180E-01
DAV:   2    -0.192172714420E+03   -0.68962E-03   -0.10169E-02 11520   0.417E-01    0.262E-01
DAV:   3    -0.192172262969E+03    0.45145E-03   -0.28918E-03 12200   0.409E-01    0.185E-01
DAV:   4    -0.192172188442E+03    0.74527E-04   -0.13937E-03 10240   0.272E-01    0.182E-01
DAV:   5    -0.192171889062E+03    0.29938E-03   -0.82199E-04  9360   0.245E-01    0.862E-02
DAV:   6    -0.192171832794E+03    0.56268E-04   -0.25392E-04  7760   0.107E-01
  68 F= -.19217183E+03 E0= -.19208528E+03  d E =-.525431E-02
       N       E                     dE             d eps       ncg     rms          rms(c)
DAV:   1    -0.192172228992E+03   -0.33993E-03   -0.24807E-03  9640   0.142E-01    0.539E-02
DAV:   2    -0.192172857662E+03   -0.62867E-03   -0.10479E-03 11360   0.284E-01    0.243E-01
DAV:   3    -0.192172184029E+03    0.67363E-03   -0.67772E-04  9120   0.239E-01    0.161E-02
DAV:   4    -0.192172203727E+03   -0.19697E-04   -0.27473E-05  6000   0.348E-02
  69 F= -.19217220E+03 E0= -.19208569E+03  d E =-.370933E-03
       N       E                     dE             d eps       ncg     rms          rms(c)
DAV:   1    -0.192177923288E+03   -0.57393E-02   -0.29699E-01  8160   0.119E+00    0.166E-01
DAV:   2    -0.192178599757E+03   -0.67647E-03   -0.91053E-03 10520   0.373E-01    0.255E-01
DAV:   3    -0.192178270397E+03    0.32936E-03   -0.27430E-03 12320   0.411E-01    0.199E-01
DAV:   4    -0.192177832146E+03    0.43825E-03   -0.73833E-04  8920   0.202E-01    0.661E-02
DAV:   5    -0.192177874484E+03   -0.42338E-04   -0.43850E-04  9320   0.134E-01
  70 F= -.19217787E+03 E0= -.19209068E+03  d E =-.567076E-02
       N       E                     dE             d eps       ncg     rms          rms(c)
DAV:   1    -0.192179377830E+03   -0.15457E-02   -0.20104E-02  8160   0.338E-01    0.735E-02
DAV:   2    -0.192180165407E+03   -0.78758E-03   -0.17402E-03 12280   0.309E-01    0.276E-01
DAV:   3    -0.192179344763E+03    0.82064E-03   -0.10301E-03 10080   0.278E-01    0.435E-02
DAV:   4    -0.192179354923E+03   -0.10160E-04   -0.85242E-05  5920   0.624E-02
  71 F= -.19217935E+03 E0= -.19209250E+03  d E =-.148044E-02
       N       E                     dE             d eps       ncg     rms          rms(c)
DAV:   1    -0.192181954425E+03   -0.26097E-02   -0.66831E-02  8160   0.558E-01    0.901E-02
DAV:   2    -0.192182725651E+03   -0.77123E-03   -0.29884E-03 11920   0.314E-01    0.265E-01
DAV:   3    -0.192181987992E+03    0.73766E-03   -0.10485E-03 10240   0.280E-01    0.518E-02
DAV:   4    -0.192181991021E+03   -0.30286E-05   -0.10379E-04  6040   0.663E-02
  72 F= -.19218199E+03 E0= -.19209546E+03  d E =-.263610E-02
       N       E                     dE             d eps       ncg     rms          rms(c)
DAV:   1    -0.192182354135E+03   -0.36614E-03   -0.16748E-03 10760   0.126E-01    0.576E-02
DAV:   2    -0.192183104856E+03   -0.75072E-03   -0.13373E-03 11040   0.303E-01    0.269E-01
DAV:   3    -0.192182306203E+03    0.79865E-03   -0.90346E-04  9160   0.255E-01    0.154E-02
DAV:   4    -0.192182329479E+03   -0.23276E-04   -0.26088E-05  5920   0.372E-02
  73 F= -.19218233E+03 E0= -.19209564E+03  d E =-.338459E-03
       N       E                     dE             d eps       ncg     rms          rms(c)
DAV:   1    -0.192182421626E+03   -0.11542E-03   -0.14798E-02  8160   0.280E-01    0.620E-02
DAV:   2    -0.192182516423E+03   -0.94798E-04   -0.92954E-04 10600   0.168E-01
  74 F= -.19218252E+03 E0= -.19209601E+03  d E =-.186944E-03
       N       E                     dE             d eps       ncg     rms          rms(c)
DAV:   1    -0.192184103275E+03   -0.16816E-02   -0.10630E-01  8160   0.710E-01    0.123E-01
DAV:   2    -0.192186427788E+03   -0.23245E-02   -0.73884E-03 11440   0.587E-01    0.443E-01
DAV:   3    -0.192184187910E+03    0.22399E-02   -0.32745E-03 11000   0.475E-01    0.759E-02
DAV:   4    -0.192184157881E+03    0.30029E-04   -0.22253E-04  8280   0.114E-01
  75 F= -.19218416E+03 E0= -.19209716E+03  d E =-.164146E-02
       N       E                     dE             d eps       ncg     rms          rms(c)
DAV:   1    -0.192182335329E+03    0.18526E-02   -0.34610E-02  8160   0.426E-01    0.732E-02
DAV:   2    -0.192182835052E+03   -0.49972E-03   -0.19186E-03 12440   0.272E-01    0.199E-01
DAV:   3    -0.192182317245E+03    0.51781E-03   -0.88655E-04 10080   0.248E-01    0.474E-02
DAV:   4    -0.192182337973E+03   -0.20728E-04   -0.99146E-05  5640   0.861E-02
  76 F= -.19218234E+03 E0= -.19209572E+03  d E =0.181991E-02
       N       E                     dE             d eps       ncg     rms          rms(c)
DAV:   1    -0.192188800071E+03   -0.64828E-02   -0.29046E-01  8160   0.117E+00    0.165E-01
DAV:   2    -0.192189686299E+03   -0.88623E-03   -0.10027E-02 10880   0.425E-01    0.279E-01
DAV:   3    -0.192189076693E+03    0.60961E-03   -0.27053E-03 12160   0.401E-01    0.167E-01
DAV:   4    -0.192188963142E+03    0.11355E-03   -0.96936E-04  9760   0.241E-01    0.145E-01
DAV:   5    -0.192188766616E+03    0.19653E-03   -0.54824E-04  8680   0.209E-01    0.738E-02
DAV:   6    -0.192188719213E+03    0.47402E-04   -0.20217E-04  7160   0.941E-02
  77 F= -.19218872E+03 E0= -.19210221E+03  d E =-.638124E-02
       N       E                     dE             d eps       ncg     rms          rms(c)
DAV:   1    -0.192191867393E+03   -0.31008E-02   -0.66505E-02  8160   0.563E-01    0.813E-02
DAV:   2    -0.192192258443E+03   -0.39105E-03   -0.22348E-03 11480   0.243E-01    0.181E-01
DAV:   3    -0.192191900380E+03    0.35806E-03   -0.77725E-04 10800   0.232E-01    0.715E-02
DAV:   4    -0.192191915540E+03   -0.15159E-04   -0.20642E-04  7760   0.112E-01
  78 F= -.19219192E+03 E0= -.19210545E+03  d E =-.319633E-02
       N       E                     dE             d eps       ncg     rms          rms(c)
DAV:   1    -0.192186639138E+03    0.52612E-02   -0.32185E-01  8160   0.123E+00    0.180E-01
DAV:   2    -0.192190795979E+03   -0.41568E-02   -0.14723E-02 12200   0.795E-01    0.590E-01
DAV:   3    -0.192186804320E+03    0.39917E-02   -0.58122E-03 11240   0.647E-01    0.124E-01
DAV:   4    -0.192186802027E+03    0.22925E-05   -0.61930E-04  9080   0.213E-01
  79 F= -.19218680E+03 E0= -.19210088E+03  d E =0.511351E-02
       N       E                     dE             d eps       ncg     rms          rms(c)
DAV:   1    -0.192196214739E+03   -0.94104E-02   -0.62345E-01  8160   0.171E+00    0.226E-01
DAV:   2    -0.192201182734E+03   -0.49680E-02   -0.22822E-02 12000   0.893E-01    0.617E-01
DAV:   3    -0.192196591716E+03    0.45910E-02   -0.80813E-03 11680   0.721E-01    0.148E-01
DAV:   4    -0.192196835585E+03   -0.24387E-03   -0.12576E-03  9760   0.299E-01    0.206E-01
DAV:   5    -0.192196351889E+03    0.48370E-03   -0.78959E-04  9920   0.251E-01    0.654E-02
DAV:   6    -0.192196377320E+03   -0.25431E-04   -0.26595E-04  7920   0.104E-01
  80 F= -.19219638E+03 E0= -.19211018E+03  d E =-.957529E-02
       N       E                     dE             d eps       ncg     rms          rms(c)
DAV:   1    -0.192196152562E+03    0.19933E-03   -0.11929E-03 12240   0.138E-01    0.666E-02
DAV:   2    -0.192197219862E+03   -0.10673E-02   -0.16992E-03 10920   0.358E-01    0.315E-01
DAV:   3    -0.192196093658E+03    0.11262E-02   -0.10849E-03 10120   0.301E-01    0.243E-02
DAV:   4    -0.192196100537E+03   -0.68792E-05   -0.25675E-05  5960   0.290E-02
  81 F= -.19219610E+03 E0= -.19210981E+03  d E =0.276783E-03
       N       E                     dE             d eps       ncg     rms          rms(c)
DAV:   1    -0.192189610986E+03    0.64827E-02   -0.27019E-01  8160   0.112E+00    0.162E-01
DAV:   2    -0.192191742892E+03   -0.21319E-02   -0.11111E-02 10480   0.591E-01    0.412E-01
DAV:   3    -0.192189843584E+03    0.18993E-02   -0.35546E-03 11200   0.491E-01    0.114E-01
DAV:   4    -0.192189960873E+03   -0.11729E-03   -0.63789E-04  9240   0.228E-01    0.158E-01
DAV:   5    -0.192189672698E+03    0.28817E-03   -0.45676E-04  8440   0.193E-01    0.471E-02
DAV:   6    -0.192189678698E+03   -0.59998E-05   -0.14716E-04  7040   0.712E-02
  82 F= -.19218968E+03 E0= -.19210356E+03  d E =0.642184E-02
       N       E                     dE             d eps       ncg     rms          rms(c)
DAV:   1    -0.192196004922E+03   -0.63322E-02   -0.25688E-01  8160   0.110E+00    0.153E-01
DAV:   2    -0.192197322644E+03   -0.13177E-02   -0.94254E-03 11880   0.439E-01    0.323E-01
DAV:   3    -0.192196275521E+03    0.10471E-02   -0.31086E-03 11800   0.427E-01    0.143E-01
DAV:   4    -0.192196195149E+03    0.80373E-04   -0.60544E-04  8920   0.191E-01
  83 F= -.19219620E+03 E0= -.19210981E+03  d E =-.651645E-02
       N       E                     dE             d eps       ncg     rms          rms(c)
DAV:   1    -0.192192984273E+03    0.32912E-02   -0.86569E-02  8160   0.704E-01    0.124E-01
DAV:   2    -0.192194532727E+03   -0.15485E-02   -0.56240E-03 12400   0.482E-01    0.363E-01
DAV:   3    -0.192192974349E+03    0.15584E-02   -0.22946E-03 11200   0.428E-01    0.891E-02
DAV:   4    -0.192193043709E+03   -0.69360E-04   -0.48355E-04  8480   0.164E-01
  84 F= -.19219304E+03 E0= -.19210736E+03  d E =0.315144E-02
       N       E                     dE             d eps       ncg     rms          rms(c)
DAV:   1    -0.192190577337E+03    0.23970E-02   -0.97378E-02  8160   0.709E-01    0.172E-01
DAV:   2    -0.192189958591E+03    0.61875E-03   -0.44064E-03 10640   0.237E-01    0.139E-01
DAV:   3    -0.192189996383E+03   -0.37791E-04   -0.15440E-03 11240   0.310E-01    0.178E-01
DAV:   4    -0.192189726609E+03    0.26977E-03   -0.10845E-03 10160   0.290E-01    0.124E-01
DAV:   5    -0.192189640157E+03    0.86452E-04   -0.63221E-04  9960   0.194E-01
  85 F= -.19218964E+03 E0= -.19210399E+03  d E =0.340355E-02
       N       E                     dE             d eps       ncg     rms          rms(c)
DAV:   1    -0.192203391332E+03   -0.13665E-01   -0.90934E-01  8160   0.210E+00    0.292E-01
DAV:   2    -0.192206491465E+03   -0.31001E-02   -0.28333E-02 11080   0.711E-01    0.513E-01
DAV:   3    -0.192203922152E+03    0.25693E-02   -0.95398E-03 12400   0.746E-01    0.295E-01
DAV:   4    -0.192203533849E+03    0.38830E-03   -0.24992E-03 12120   0.394E-01    0.232E-01
DAV:   5    -0.192202997583E+03    0.53627E-03   -0.16317E-03 10160   0.362E-01    0.143E-01
DAV:   6    -0.192202802541E+03    0.19504E-03   -0.74106E-04 10120   0.188E-01    0.665E-02
DAV:   7    -0.192202751320E+03    0.51221E-04   -0.19750E-04  6960   0.968E-02
  86 F= -.19220275E+03 E0= -.19211648E+03  d E =-.131112E-01
       N       E                     dE             d eps       ncg     rms          rms(c)
DAV:   1    -0.192217409642E+03   -0.14607E-01   -0.10300E+00  8160   0.220E+00    0.300E-01
DAV:   2    -0.192220693989E+03   -0.32843E-02   -0.31521E-02 11360   0.721E-01    0.526E-01
DAV:   3    -0.192218451224E+03    0.22428E-02   -0.10298E-02 12720   0.771E-01    0.316E-01
DAV:   4    -0.192217697384E+03    0.75384E-03   -0.22561E-03 11640   0.361E-01    0.188E-01
DAV:   5    -0.192217362449E+03    0.33494E-03   -0.14528E-03 11240   0.322E-01    0.142E-01
DAV:   6    -0.192217228525E+03    0.13392E-03   -0.74481E-04 10240   0.214E-01    0.843E-02
DAV:   7    -0.192217147266E+03    0.81260E-04   -0.25835E-04  8000   0.119E-01
  87 F= -.19221715E+03 E0= -.19213023E+03  d E =-.143959E-01
       N       E                     dE             d eps       ncg     rms          rms(c)
DAV:   1    -0.192219672669E+03   -0.24441E-02   -0.62915E-02  8160   0.557E-01    0.841E-02
DAV:   2    -0.192219810759E+03   -0.13809E-03   -0.27417E-03 11280   0.204E-01    0.110E-01
DAV:   3    -0.192219741178E+03    0.69581E-04   -0.65284E-04  9680   0.190E-01
  88 F= -.19221974E+03 E0= -.19213284E+03  d E =-.259391E-02
       N       E                     dE             d eps       ncg     rms          rms(c)
DAV:   1    -0.192214569731E+03    0.52410E-02   -0.13110E-01  8160   0.788E-01    0.131E-01
DAV:   2    -0.192217456658E+03   -0.28869E-02   -0.79785E-03 11960   0.602E-01    0.507E-01
DAV:   3    -0.192214574748E+03    0.28819E-02   -0.38702E-03 11480   0.522E-01    0.530E-02
DAV:   4    -0.192214637016E+03   -0.62267E-04   -0.20933E-04  7640   0.115E-01
  89 F= -.19221464E+03 E0= -.19212807E+03  d E =0.510416E-02
       N       E                     dE             d eps       ncg     rms          rms(c)
DAV:   1    -0.192183988719E+03    0.30586E-01   -0.63777E+00  8160   0.545E+00    0.813E-01
DAV:   2    -0.192249726633E+03   -0.65738E-01   -0.26749E-01 11960   0.314E+00    0.248E+00
DAV:   3    -0.192187117354E+03    0.62609E-01   -0.13453E-01 12280   0.278E+00    0.606E-01
DAV:   4    -0.192189310337E+03   -0.21930E-02   -0.19148E-02 12440   0.114E+00    0.754E-01
DAV:   5    -0.192182954863E+03    0.63555E-02   -0.11577E-02 12320   0.929E-01    0.307E-01
DAV:   6    -0.192183139113E+03   -0.18425E-03   -0.47369E-03 11720   0.543E-01    0.366E-01
DAV:   7    -0.192182234249E+03    0.90486E-03   -0.34989E-03 11840   0.514E-01    0.200E-01
DAV:   8    -0.192181626520E+03    0.60773E-03   -0.93860E-04 10440   0.191E-01    0.324E-02
DAV:   9    -0.192181626272E+03    0.24794E-06   -0.10171E-04  6880   0.351E-02
  90 F= -.19218163E+03 E0= -.19209535E+03  d E =0.330107E-01
       N       E                     dE             d eps       ncg     rms          rms(c)
DAV:   1    -0.192179464692E+03    0.21618E-02   -0.91398E-02  8160   0.649E-01    0.842E-02
DAV:   2    -0.192179810385E+03   -0.34569E-03   -0.43812E-03 11480   0.247E-01    0.111E-01
DAV:   3    -0.192179778024E+03    0.32361E-04   -0.59692E-04  9760   0.201E-01
  91 F= -.19217978E+03 E0= -.19209390E+03  d E =0.184825E-02
       N       E                     dE             d eps       ncg     rms          rms(c)
DAV:   1    -0.192195389266E+03   -0.15579E-01   -0.17935E+00  8160   0.289E+00    0.401E-01
DAV:   2    -0.192210876755E+03   -0.15487E-01   -0.67852E-02 12080   0.156E+00    0.109E+00
DAV:   3    -0.192196194289E+03    0.14682E-01   -0.24828E-02 11920   0.127E+00    0.261E-01
DAV:   4    -0.192197021745E+03   -0.82746E-03   -0.40856E-03 10800   0.536E-01    0.374E-01
DAV:   5    -0.192195456557E+03    0.15652E-02   -0.25934E-03 10120   0.454E-01    0.118E-01
DAV:   6    -0.192195462924E+03   -0.63669E-05   -0.80629E-04 10360   0.175E-01
  92 F= -.19219546E+03 E0= -.19210940E+03  d E =-.156849E-01
       N       E                     dE             d eps       ncg     rms          rms(c)
DAV:   1    -0.192194348842E+03    0.11077E-02   -0.12493E-02 10920   0.310E-01    0.111E-01
DAV:   2    -0.192197227779E+03   -0.28789E-02   -0.48392E-03 11880   0.593E-01    0.514E-01
DAV:   3    -0.192194220811E+03    0.30070E-02   -0.30249E-03 10240   0.505E-01    0.437E-02
DAV:   4    -0.192194214483E+03    0.63285E-05   -0.77145E-05  6000   0.492E-02
  93 F= -.19219421E+03 E0= -.19210802E+03  d E =0.124844E-02
       N       E                     dE             d eps       ncg     rms          rms(c)
DAV:   1    -0.192194582748E+03   -0.36194E-03   -0.76841E-03  8280   0.196E-01    0.493E-02
DAV:   2    -0.192194766633E+03   -0.18388E-03   -0.73197E-04 10320   0.198E-01    0.137E-01
DAV:   3    -0.192194545899E+03    0.22073E-03   -0.30051E-04  8760   0.158E-01    0.339E-02
DAV:   4    -0.192194560292E+03   -0.14393E-04   -0.69680E-05  6360   0.720E-02
  94 F= -.19219456E+03 E0= -.19210851E+03  d E =-.345810E-03
       N       E                     dE             d eps       ncg     rms          rms(c)
DAV:   1    -0.192185339868E+03    0.92060E-02   -0.90751E-01  8160   0.209E+00    0.347E-01
DAV:   2    -0.192194029966E+03   -0.86901E-02   -0.46845E-02 12360   0.124E+00    0.904E-01
DAV:   3    -0.192185379518E+03    0.86504E-02   -0.17652E-02 12320   0.105E+00    0.234E-01
DAV:   4    -0.192185931377E+03   -0.55186E-03   -0.33900E-03 11360   0.496E-01    0.336E-01
DAV:   5    -0.192184526834E+03    0.14045E-02   -0.22141E-03 10160   0.422E-01    0.977E-02
DAV:   6    -0.192184466558E+03    0.60277E-04   -0.69647E-04 10000   0.128E-01
  95 F= -.19218447E+03 E0= -.19209807E+03  d E =0.100937E-01
       N       E                     dE             d eps       ncg     rms          rms(c)
DAV:   1    -0.192178278113E+03    0.62487E-02   -0.54484E-01  8160   0.160E+00    0.232E-01
DAV:   2    -0.192180792647E+03   -0.25145E-02   -0.25543E-02 11320   0.636E-01    0.424E-01
DAV:   3    -0.192179313032E+03    0.14796E-02   -0.61263E-03 12280   0.589E-01    0.232E-01
DAV:   4    -0.192179051085E+03    0.26195E-03   -0.15283E-03 10680   0.311E-01    0.186E-01
DAV:   5    -0.192178695734E+03    0.35535E-03   -0.96958E-04 10400   0.275E-01    0.960E-02
DAV:   6    -0.192178693748E+03    0.19864E-05   -0.46130E-04  8720   0.136E-01
  96 F= -.19217869E+03 E0= -.19209235E+03  d E =0.577281E-02
       N       E                     dE             d eps       ncg     rms          rms(c)
DAV:   1    -0.192202569319E+03   -0.23874E-01   -0.31407E+00  8160   0.389E+00    0.683E-01
DAV:   2    -0.192229463016E+03   -0.26894E-01   -0.16934E-01 12200   0.232E+00    0.157E+00
DAV:   3    -0.192201619682E+03    0.27843E-01   -0.54029E-02 12160   0.189E+00    0.490E-01
DAV:   4    -0.192202391345E+03   -0.77166E-03   -0.12425E-02 10600   0.947E-01    0.627E-01
DAV:   5    -0.192197978713E+03    0.44126E-02   -0.91289E-03 11360   0.857E-01    0.246E-01
DAV:   6    -0.192197706881E+03    0.27183E-03   -0.33350E-03 12320   0.376E-01    0.222E-01
DAV:   7    -0.192197409822E+03    0.29706E-03   -0.15852E-03 11400   0.330E-01    0.145E-01
DAV:   8    -0.192197172795E+03    0.23703E-03   -0.38347E-04  8920   0.143E-01    0.298E-02
DAV:   9    -0.192197170755E+03    0.20394E-05   -0.55327E-05  7480   0.295E-02
  97 F= -.19219717E+03 E0= -.19211127E+03  d E =-.184770E-01
       N       E                     dE             d eps       ncg     rms          rms(c)
DAV:   1    -0.192201807530E+03   -0.46347E-02   -0.13262E-01  8160   0.823E-01    0.141E-01
DAV:   2    -0.192201676343E+03    0.13119E-03   -0.54904E-03 10160   0.220E-01    0.975E-02
DAV:   3    -0.192201637519E+03    0.38824E-04   -0.77431E-04 10280   0.199E-01
  98 F= -.19220164E+03 E0= -.19211556E+03  d E =-.446676E-02
       N       E                     dE             d eps       ncg     rms          rms(c)
DAV:   1    -0.192213526601E+03   -0.11850E-01   -0.68846E-01  8160   0.181E+00    0.275E-01
DAV:   2    -0.192218458666E+03   -0.49321E-02   -0.26236E-02 12080   0.844E-01    0.626E-01
DAV:   3    -0.192213761024E+03    0.46976E-02   -0.10486E-02 12200   0.798E-01    0.211E-01
DAV:   4    -0.192214113280E+03   -0.35226E-03   -0.21354E-03 10960   0.379E-01    0.274E-01
DAV:   5    -0.192213269452E+03    0.84383E-03   -0.14056E-03 10280   0.340E-01    0.906E-02
DAV:   6    -0.192213219921E+03    0.49531E-04   -0.47439E-04  9160   0.115E-01
  99 F= -.19221322E+03 E0= -.19212656E+03  d E =-.115824E-01
       N       E                     dE             d eps       ncg     rms          rms(c)
DAV:   1    -0.192213198985E+03    0.70467E-04   -0.68775E-04 10840   0.103E-01    0.545E-02
DAV:   2    -0.192213918457E+03   -0.71947E-03   -0.10328E-03 11280   0.301E-01    0.260E-01
DAV:   3    -0.192213152176E+03    0.76628E-03   -0.69647E-04  9520   0.251E-01    0.991E-03
DAV:   4    -0.192213165712E+03   -0.13536E-04   -0.12856E-05  5920   0.157E-02
 100 F= -.19221317E+03 E0= -.19212646E+03  d E =0.542093E-04
