<?xml version="1.0" encoding="ISO-8859-1"?>
<modeling>
 <generator>
  <i name="program" type="string">vasp </i>
  <i name="version" type="string">5.4.1  </i>
  <i name="subversion" type="string">05Feb16 (build Jul 05 2020 17:13:04) complex                          parallel </i>
  <i name="platform" type="string">IFC91_ompi </i>
  <i name="date" type="string">2024 05 06 </i>
  <i name="time" type="string">08:47:47 </i>
 </generator>
 <incar>
  <i type="int" name="ISTART">     0</i>
  <i type="string" name="PREC">normal</i>
  <i type="string" name="ALGO"> Normal</i>
  <i type="int" name="ISPIN">     1</i>
  <i type="int" name="ICHARG">     2</i>
  <i type="int" name="IBRION">     1</i>
  <i type="int" name="NSW">   100</i>
  <i type="int" name="ISIF">     3</i>
  <i type="int" name="ISYM">     0</i>
  <i name="SYMPREC">      0.00000001</i>
  <i name="POTIM">      0.50000000</i>
  <i type="logical" name="LREAL"> F  </i>
  <i type="logical" name="LPLANE"> F  </i>
  <i type="int" name="ISMEAR">     0</i>
  <i type="logical" name="LWAVE"> F  </i>
  <i type="logical" name="LCHARG"> F  </i>
  <v type="int" name="KPOINT_BSE">    -1     0     0     0</v>
 </incar>
 <kpoints>
  <generation param="Gamma">
   <v type="int" name="divisions">       8        8        1 </v>
   <v name="usershift">      0.00000000       0.00000000       0.00000000 </v>
   <v name="genvec1">      0.12500000       0.00000000       0.00000000 </v>
   <v name="genvec2">     -0.00000000       0.12500000       0.00000000 </v>
   <v name="genvec3">      0.00000000       0.00000000       1.00000000 </v>
   <v name="shift">      0.00000000       0.00000000       0.00000000 </v>
  </generation>
  <varray name="kpointlist" >
   <v>       0.00000000       0.00000000       0.00000000 </v>
   <v>       0.12500000       0.00000000       0.00000000 </v>
   <v>       0.25000000       0.00000000       0.00000000 </v>
   <v>       0.37500000       0.00000000       0.00000000 </v>
   <v>       0.50000000       0.00000000       0.00000000 </v>
   <v>       0.00000000       0.12500000       0.00000000 </v>
   <v>       0.12500000       0.12500000       0.00000000 </v>
   <v>       0.25000000       0.12500000       0.00000000 </v>
   <v>       0.37500000       0.12500000       0.00000000 </v>
   <v>       0.50000000       0.12500000       0.00000000 </v>
   <v>      -0.37500000       0.12500000       0.00000000 </v>
   <v>      -0.25000000       0.12500000       0.00000000 </v>
   <v>      -0.12500000       0.12500000       0.00000000 </v>
   <v>       0.00000000       0.25000000       0.00000000 </v>
   <v>       0.12500000       0.25000000       0.00000000 </v>
   <v>       0.25000000       0.25000000       0.00000000 </v>
   <v>       0.37500000       0.25000000       0.00000000 </v>
   <v>       0.50000000       0.25000000       0.00000000 </v>
   <v>      -0.37500000       0.25000000       0.00000000 </v>
   <v>      -0.25000000       0.25000000       0.00000000 </v>
   <v>      -0.12500000       0.25000000       0.00000000 </v>
   <v>      -0.00000000       0.37500000       0.00000000 </v>
   <v>       0.12500000       0.37500000       0.00000000 </v>
   <v>       0.25000000       0.37500000       0.00000000 </v>
   <v>       0.37500000       0.37500000       0.00000000 </v>
   <v>       0.50000000       0.37500000       0.00000000 </v>
   <v>      -0.37500000       0.37500000       0.00000000 </v>
   <v>      -0.25000000       0.37500000       0.00000000 </v>
   <v>      -0.12500000       0.37500000       0.00000000 </v>
   <v>       0.00000000       0.50000000       0.00000000 </v>
   <v>       0.12500000       0.50000000       0.00000000 </v>
   <v>       0.25000000       0.50000000       0.00000000 </v>
   <v>       0.37500000       0.50000000       0.00000000 </v>
   <v>       0.50000000       0.50000000       0.00000000 </v>
  </varray>
  <varray name="weights" >
   <v>       0.01562500 </v>
   <v>       0.03125000 </v>
   <v>       0.03125000 </v>
   <v>       0.03125000 </v>
   <v>       0.01562500 </v>
   <v>       0.03125000 </v>
   <v>       0.03125000 </v>
   <v>       0.03125000 </v>
   <v>       0.03125000 </v>
   <v>       0.03125000 </v>
   <v>       0.03125000 </v>
   <v>       0.03125000 </v>
   <v>       0.03125000 </v>
   <v>       0.03125000 </v>
   <v>       0.03125000 </v>
   <v>       0.03125000 </v>
   <v>       0.03125000 </v>
   <v>       0.03125000 </v>
   <v>       0.03125000 </v>
   <v>       0.03125000 </v>
   <v>       0.03125000 </v>
   <v>       0.03125000 </v>
   <v>       0.03125000 </v>
   <v>       0.03125000 </v>
   <v>       0.03125000 </v>
   <v>       0.03125000 </v>
   <v>       0.03125000 </v>
   <v>       0.03125000 </v>
   <v>       0.03125000 </v>
   <v>       0.01562500 </v>
   <v>       0.03125000 </v>
   <v>       0.03125000 </v>
   <v>       0.03125000 </v>
   <v>       0.01562500 </v>
  </varray>
 </kpoints>
 <parameters>
  <separator name="general" >
   <i type="string" name="SYSTEM">unknown system</i>
   <i type="logical" name="LCOMPAT"> F  </i>
  </separator>
  <separator name="electronic" >
   <i type="string" name="PREC">normal</i>
   <i name="ENMAX">    280.00000000</i>
   <i name="ENAUG">    373.43800000</i>
   <i name="EDIFF">      0.00010000</i>
   <i type="int" name="IALGO">    38</i>
   <i type="int" name="IWAVPR">    11</i>
   <i type="int" name="NBANDS">   120</i>
   <i name="NELECT">    159.00000000</i>
   <i type="int" name="TURBO">     0</i>
   <i type="int" name="IRESTART">     0</i>
   <i type="int" name="NREBOOT">     0</i>
   <i type="int" name="NMIN">     0</i>
   <i name="EREF">      0.00000000</i>
   <separator name="electronic smearing" >
    <i type="int" name="ISMEAR">     0</i>
    <i name="SIGMA">      0.20000000</i>
    <i name="KSPACING">      0.50000000</i>
    <i type="logical" name="KGAMMA"> T  </i>
   </separator>
   <separator name="electronic projectors" >
    <i type="logical" name="LREAL"> F  </i>
    <v name="ROPT">      0.00000000      0.00000000      0.00000000      0.00000000</v>
    <i type="int" name="LMAXPAW">  -100</i>
    <i type="int" name="LMAXMIX">     2</i>
    <i type="logical" name="NLSPLINE"> F  </i>
   </separator>
   <separator name="electronic startup" >
    <i type="int" name="ISTART">     0</i>
    <i type="int" name="ICHARG">     2</i>
    <i type="int" name="INIWAV">     1</i>
   </separator>
   <separator name="electronic spin" >
    <i type="int" name="ISPIN">     1</i>
    <i type="logical" name="LNONCOLLINEAR"> F  </i>
    <v name="MAGMOM">      1.00000000      1.00000000      1.00000000      1.00000000      1.00000000      1.00000000      1.00000000      1.00000000      1.00000000      1.00000000      1.00000000      1.00000000      1.00000000      1.00000000      1.00000000      1.00000000      1.00000000      1.00000000      1.00000000      1.00000000
      1.00000000      1.00000000      1.00000000      1.00000000      1.00000000      1.00000000      1.00000000</v>
    <i name="NUPDOWN">     -1.00000000</i>
    <i type="logical" name="LSORBIT"> F  </i>
    <v name="SAXIS">      0.00000000      0.00000000      1.00000000</v>
    <i type="logical" name="LSPIRAL"> F  </i>
    <v name="QSPIRAL">      0.00000000      0.00000000      0.00000000</v>
    <i type="logical" name="LZEROZ"> F  </i>
   </separator>
   <separator name="electronic exchange-correlation" >
    <i type="logical" name="LASPH"> F  </i>
    <i type="logical" name="LMETAGGA"> F  </i>
   </separator>
   <separator name="electronic convergence" >
    <i type="int" name="NELM">    60</i>
    <i type="int" name="NELMDL">    -5</i>
    <i type="int" name="NELMIN">     2</i>
    <i name="ENINI">    280.00000000</i>
    <separator name="electronic convergence detail" >
     <i type="logical" name="LDIAG"> T  </i>
     <i type="logical" name="LSUBROT"> F  </i>
     <i name="WEIMIN">      0.00100000</i>
     <i name="EBREAK">      0.00000021</i>
     <i name="DEPER">      0.30000000</i>
     <i type="int" name="NRMM">     4</i>
     <i name="TIME">      0.40000000</i>
    </separator>
   </separator>
   <separator name="electronic mixer" >
    <i name="AMIX">      0.40000000</i>
    <i name="BMIX">      1.00000000</i>
    <i name="AMIN">      0.10000000</i>
    <i name="AMIX_MAG">      1.60000000</i>
    <i name="BMIX_MAG">      1.00000000</i>
    <separator name="electronic mixer details" >
     <i type="int" name="IMIX">     4</i>
     <i type="logical" name="MIXFIRST"> F  </i>
     <i type="int" name="MAXMIX">   -45</i>
     <i name="WC">    100.00000000</i>
     <i type="int" name="INIMIX">     1</i>
     <i type="int" name="MIXPRE">     1</i>
     <i type="int" name="MREMOVE">     5</i>
    </separator>
   </separator>
   <separator name="electronic dipolcorrection" >
    <i type="logical" name="LDIPOL"> F  </i>
    <i type="logical" name="LMONO"> F  </i>
    <i type="int" name="IDIPOL">     0</i>
    <i name="EPSILON">      1.00000000</i>
    <v name="DIPOL">   -100.00000000   -100.00000000   -100.00000000</v>
    <i name="EFIELD">      0.00000000</i>
   </separator>
  </separator>
  <separator name="grids" >
   <i type="int" name="NGX">    42</i>
   <i type="int" name="NGY">    42</i>
   <i type="int" name="NGZ">   126</i>
   <i type="int" name="NGXF">    84</i>
   <i type="int" name="NGYF">    84</i>
   <i type="int" name="NGZF">   252</i>
   <i type="logical" name="ADDGRID"> F  </i>
  </separator>
  <separator name="ionic" >
   <i type="int" name="NSW">   100</i>
   <i type="int" name="IBRION">     1</i>
   <i type="int" name="ISIF">     3</i>
   <i name="PSTRESS">      0.00000000</i>
   <i name="EDIFFG">      0.00100000</i>
   <i type="int" name="NFREE">     0</i>
   <i name="POTIM">      0.50000000</i>
   <i name="SMASS">     -3.00000000</i>
   <i name="SCALEE">      1.00000000</i>
  </separator>
  <separator name="ionic md" >
   <i name="TEBEG">      0.00010000</i>
   <i name="TEEND">      0.00010000</i>
   <i type="int" name="NBLOCK">     1</i>
   <i type="int" name="KBLOCK">   100</i>
   <i type="int" name="NPACO">   256</i>
   <i name="APACO">     16.00000000</i>
  </separator>
  <separator name="symmetry" >
   <i type="int" name="ISYM">     0</i>
   <i name="SYMPREC">      0.00000001</i>
  </separator>
  <separator name="dos" >
   <i type="logical" name="LORBIT"> F  </i>
   <v name="RWIGS">     -1.00000000     -1.00000000     -1.00000000     -1.00000000</v>
   <i type="int" name="NEDOS">   301</i>
   <i name="EMIN">     10.00000000</i>
   <i name="EMAX">    -10.00000000</i>
   <i name="EFERMI">      0.00000000</i>
  </separator>
  <separator name="writing" >
   <i type="int" name="NWRITE">     2</i>
   <i type="logical" name="LWAVE"> F  </i>
   <i type="logical" name="LCHARG"> F  </i>
   <i type="logical" name="LPARD"> F  </i>
   <i type="logical" name="LVTOT"> F  </i>
   <i type="logical" name="LVHAR"> F  </i>
   <i type="logical" name="LELF"> F  </i>
   <i type="logical" name="LOPTICS"> F  </i>
   <v name="STM">      0.00000000      0.00000000      0.00000000      0.00000000      0.00000000      0.00000000      0.00000000</v>
  </separator>
  <separator name="performance" >
   <i type="int" name="NPAR">    40</i>
   <i type="int" name="NSIM">     4</i>
   <i type="int" name="NBLK">    -1</i>
   <i type="logical" name="LPLANE"> F  </i>
   <i type="logical" name="LSCALAPACK"> T  </i>
   <i type="logical" name="LSCAAWARE"> F  </i>
   <i type="logical" name="LSCALU"> F  </i>
   <i type="logical" name="LASYNC"> F  </i>
   <i type="logical" name="LORBITALREAL"> F  </i>
  </separator>
  <separator name="miscellaneous" >
   <i type="int" name="IDIOT">     3</i>
   <i type="logical" name="LMUSIC"> F  </i>
   <v name="POMASS">     50.94100000     95.94000000    183.85000000     32.06600000</v>
   <v name="DARWINR">      0.00000000      0.00000000      0.00000000      0.00000000</v>
   <v name="DARWINV">      1.00000000      1.00000000      1.00000000      1.00000000</v>
   <i type="logical" name="LCORR"> T  </i>
  </separator>
  <i type="logical" name="GGA_COMPAT"> T  </i>
  <i type="logical" name="LBERRY"> F  </i>
  <i type="int" name="ICORELEVEL">     0</i>
  <i type="logical" name="LDAU"> F  </i>
  <i type="int" name="I_CONSTRAINED_M">     0</i>
  <separator name="electronic exchange-correlation" >
   <i type="string" name="GGA">--</i>
   <i type="int" name="VOSKOWN">     0</i>
   <i type="logical" name="LHFCALC"> F  </i>
   <i type="string" name="PRECFOCK"></i>
   <i type="logical" name="LSYMGRAD"> F  </i>
   <i type="logical" name="LHFONE"> F  </i>
   <i type="logical" name="LRHFCALC"> F  </i>
   <i type="logical" name="LTHOMAS"> F  </i>
   <i type="logical" name="LMODELHF"> F  </i>
   <i name="ENCUT4O">     -1.00000000</i>
   <i type="int" name="EXXOEP">     0</i>
   <i type="int" name="FOURORBIT">     0</i>
   <i name="AEXX">      0.00000000</i>
   <i name="HFALPHA">      0.00000000</i>
   <i name="MCALPHA">      0.00000000</i>
   <i name="ALDAX">      1.00000000</i>
   <i name="AGGAX">      1.00000000</i>
   <i name="ALDAC">      1.00000000</i>
   <i name="AGGAC">      1.00000000</i>
   <i type="int" name="NKREDX">     1</i>
   <i type="int" name="NKREDY">     1</i>
   <i type="int" name="NKREDZ">     1</i>
   <i type="logical" name="SHIFTRED"> F  </i>
   <i type="logical" name="ODDONLY"> F  </i>
   <i type="logical" name="EVENONLY"> F  </i>
   <i type="int" name="LMAXFOCK">     0</i>
   <i type="int" name="NMAXFOCKAE">     0</i>
   <i type="logical" name="LFOCKAEDFT"> F  </i>
   <i name="HFSCREEN">      0.00000000</i>
   <i name="HFSCREENC">      0.00000000</i>
   <i type="int" name="NBANDSGWLOW">     0</i>
  </separator>
  <separator name="vdW DFT" >
   <i type="logical" name="LUSE_VDW"> F  </i>
   <i name="Zab_VDW">     -0.84910000</i>
   <i name="PARAM1">      0.12340000</i>
   <i name="PARAM2">      1.00000000</i>
   <i name="PARAM3">      0.00000000</i>
  </separator>
  <separator name="model GW" >
   <i type="int" name="MODEL_GW">     0</i>
   <i name="MODEL_EPS0">     58.26239943</i>
   <i name="MODEL_ALPHA">      1.00000000</i>
  </separator>
  <separator name="linear response parameters" >
   <i type="logical" name="LEPSILON"> F  </i>
   <i type="logical" name="LRPA"> F  </i>
   <i type="logical" name="LNABLA"> F  </i>
   <i type="logical" name="LVEL"> F  </i>
   <i type="int" name="KINTER">     0</i>
   <i name="CSHIFT">      0.10000000</i>
   <i name="OMEGAMAX">     -1.00000000</i>
   <i name="DEG_THRESHOLD">      0.00200000</i>
  </separator>
  <separator name="orbital magnetization" >
   <i type="logical" name="NUCIND"> F  </i>
   <v name="MAGPOS">      0.00000000      0.00000000      0.00000000</v>
   <i type="logical" name="LNICSALL"> T  </i>
   <i type="logical" name="ORBITALMAG"> F  </i>
   <i type="logical" name="LMAGBLOCH"> F  </i>
   <i type="logical" name="LCHIMAG"> F  </i>
   <i type="logical" name="LGAUGE"> T  </i>
   <i type="int" name="MAGATOM">     0</i>
   <v name="MAGDIPOL">      0.00000000      0.00000000      0.00000000</v>
   <v name="AVECCONST">      0.00000000      0.00000000      0.00000000</v>
  </separator>
  <separator name="response functions" >
   <i type="logical" name="LADDER"> F  </i>
   <i type="logical" name="LFXC"> F  </i>
   <i type="logical" name="LHARTREE"> T  </i>
   <i type="int" name="IBSE">     0</i>
   <v type="int" name="KPOINT">    -1     0     0     0</v>
   <i type="logical" name="LTCTE"> F  </i>
   <i type="logical" name="LTETE"> F  </i>
   <i type="logical" name="LTRIPLET"> F  </i>
   <i type="logical" name="LFXCEPS"> F  </i>
   <i type="logical" name="LFXHEG"> F  </i>
   <i type="int" name="NATURALO">     0</i>
   <i type="logical" name="L2ORDER"> F  </i>
   <i type="logical" name="LUSEW"> F  </i>
   <i name="ENCUTGW">     -2.00000000</i>
   <i name="ENCUTGWSOFT">     -2.00000000</i>
   <i name="ENCUTLF">     -1.00000000</i>
   <i type="int" name="LMAXMP2">    -1</i>
   <i name="SCISSOR">      0.00000000</i>
   <i type="int" name="NOMEGA">     0</i>
   <i type="int" name="NOMEGAR">     0</i>
   <i type="int" name="NBANDSGW">    -1</i>
   <i type="int" name="NBANDSO">    -1</i>
   <i type="int" name="NBANDSV">    -1</i>
   <i type="int" name="NELM">     1</i>
   <i type="int" name="NELMHF">     1</i>
   <i type="int" name="DIM">     3</i>
   <i type="int" name="ANTIRES">     0</i>
   <i name="OMEGAMAX">    -30.00000000</i>
   <i name="OMEGAMIN">    -30.00000000</i>
   <i name="OMEGATL">   -200.00000000</i>
   <i type="int" name="OMEGAGRID">     0</i>
   <i name="CSHIFT">     -0.10000000</i>
   <i type="logical" name="SELFENERGY"> F  </i>
   <i type="logical" name="LSPECTRAL"> F  </i>
   <i type="logical" name="LSPECTRALGW"> F  </i>
   <i type="logical" name="LSINGLES"> F  </i>
   <i type="logical" name="LFERMIGW"> F  </i>
   <i type="logical" name="ODDONLYGW"> F  </i>
   <i type="logical" name="EVENONLYGW"> F  </i>
   <i type="int" name="NKREDLFX">     1</i>
   <i type="int" name="NKREDLFY">     1</i>
   <i type="int" name="NKREDLFZ">     1</i>
   <i type="int" name="MAXMEM">  1800</i>
   <i type="int" name="TELESCOPE">     0</i>
   <i type="int" name="TAUPAR">     1</i>
   <i type="int" name="OMEGAPAR">    -1</i>
   <i name="LAMBDA">      1.00000000</i>
  </separator>
  <separator name="External order field" >
   <i name="OFIELD_KAPPA">      0.00000000</i>
   <v name="OFIELD_K">      0.00000000      0.00000000      0.00000000</v>
   <i name="OFIELD_Q6_NEAR">      0.00000000</i>
   <i name="OFIELD_Q6_FAR">      0.00000000</i>
   <i name="OFIELD_A">      0.00000000</i>
  </separator>
 </parameters>
 <atominfo>
  <atoms>      27 </atoms>
  <types>       4 </types>
  <array name="atoms" >
   <dimension dim="1">ion</dimension>
   <field type="string">element</field>
   <field type="int">atomtype</field>
   <set>
    <rc><c>V </c><c>   1</c></rc>
    <rc><c>V </c><c>   1</c></rc>
    <rc><c>V </c><c>   1</c></rc>
    <rc><c>Mo</c><c>   2</c></rc>
    <rc><c>Mo</c><c>   2</c></rc>
    <rc><c>Mo</c><c>   2</c></rc>
    <rc><c>W </c><c>   3</c></rc>
    <rc><c>W </c><c>   3</c></rc>
    <rc><c>W </c><c>   3</c></rc>
    <rc><c>S </c><c>   4</c></rc>
    <rc><c>S </c><c>   4</c></rc>
    <rc><c>S </c><c>   4</c></rc>
    <rc><c>S </c><c>   4</c></rc>
    <rc><c>S </c><c>   4</c></rc>
    <rc><c>S </c><c>   4</c></rc>
    <rc><c>S </c><c>   4</c></rc>
    <rc><c>S </c><c>   4</c></rc>
    <rc><c>S </c><c>   4</c></rc>
    <rc><c>S </c><c>   4</c></rc>
    <rc><c>S </c><c>   4</c></rc>
    <rc><c>S </c><c>   4</c></rc>
    <rc><c>S </c><c>   4</c></rc>
    <rc><c>S </c><c>   4</c></rc>
    <rc><c>S </c><c>   4</c></rc>
    <rc><c>S </c><c>   4</c></rc>
    <rc><c>S </c><c>   4</c></rc>
    <rc><c>S </c><c>   4</c></rc>
   </set>
  </array>
  <array name="atomtypes" >
   <dimension dim="1">type</dimension>
   <field type="int">atomspertype</field>
   <field type="string">element</field>
   <field>mass</field>
   <field>valence</field>
   <field type="string">pseudopotential</field>
   <set>
    <rc><c>   3</c><c>V </c><c>     50.94100000</c><c>      5.00000000</c><c> PAW_PBE V 08Apr2002                    </c></rc>
    <rc><c>   3</c><c>Mo</c><c>     95.94000000</c><c>      6.00000000</c><c> PAW_PBE Mo 08Apr2002                   </c></rc>
    <rc><c>   3</c><c>W </c><c>    183.85000000</c><c>      6.00000000</c><c> PAW_PBE W 08Apr2002                    </c></rc>
    <rc><c>  18</c><c>S </c><c>     32.06600000</c><c>      6.00000000</c><c>  PAW_PBE S 17Jan2003                   </c></rc>
   </set>
  </array>
 </atominfo>
 <structure name="initialpos" >
  <crystal>
   <varray name="basis" >
    <v>       8.66999996       5.03999989       0.00000000 </v>
    <v>      -8.66999982       5.04000013       0.00000000 </v>
    <v>       0.00000000       0.00000000      30.00000000 </v>
   </varray>
   <i name="volume">   2621.80797419 </i>
   <varray name="rec_basis" >
    <v>       0.05767013       0.09920635       0.00000000 </v>
    <v>      -0.05767013       0.09920635       0.00000000 </v>
    <v>       0.00000000       0.00000000       0.03333333 </v>
   </varray>
  </crystal>
  <varray name="positions" >
   <v>       0.33333334       0.00000000       0.00000000 </v>
   <v>       0.33333334       0.66666669       0.00000000 </v>
   <v>       0.66666669       0.00000000       0.00000000 </v>
   <v>       1.00000000       0.33333334       0.00000000 </v>
   <v>       0.66666669       0.33333334       0.00000000 </v>
   <v>       0.00000000       0.00000000       0.00000000 </v>
   <v>       0.00000000       0.66666669       0.00000000 </v>
   <v>       0.33333334       0.33333334       0.00000000 </v>
   <v>       0.66666669       0.66666669       0.00000000 </v>
   <v>       0.11068511       0.22244981       0.95539999 </v>
   <v>       0.22244981       0.11068511       0.04460000 </v>
   <v>       0.11068511       0.55578315       0.95539999 </v>
   <v>       0.22244981       0.44401845       0.04460000 </v>
   <v>       0.11068511       0.88911647       0.95539999 </v>
   <v>       0.22244981       0.77735180       0.04460000 </v>
   <v>       0.44401845       0.22244981       0.95539999 </v>
   <v>       0.55578315       0.11068511       0.04460000 </v>
   <v>       0.44401845       0.55578315       0.95539999 </v>
   <v>       0.55578315       0.44401845       0.04460000 </v>
   <v>       0.44401845       0.88911647       0.95539999 </v>
   <v>       0.55578315       0.77735180       0.04460000 </v>
   <v>       0.77735180       0.22244981       0.95539999 </v>
   <v>       0.88911647       0.11068511       0.04460000 </v>
   <v>       0.77735180       0.55578315       0.95539999 </v>
   <v>       0.88911647       0.44401845       0.04460000 </v>
   <v>       0.77735180       0.88911647       0.95539999 </v>
   <v>       0.88911647       0.77735180       0.04460000 </v>
  </varray>
 </structure>
 <calculation>
  <scstep>
   <time name="dav">   21.68   21.73</time>
   <time name="total">   21.72   21.78</time>
   <energy>
    <i name="alphaZ">     81.65567618 </i>
    <i name="ewald">  41891.17178115 </i>
    <i name="hartreedc"> -47723.81659097 </i>
    <i name="XCdc">   -242.92514250 </i>
    <i name="pawpsdc">   3467.42045192 </i>
    <i name="pawaedc">  -2871.19716117 </i>
    <i name="eentropy">     -0.54538139 </i>
    <i name="bandstr">   -238.61336801 </i>
    <i name="atom">   6761.44252427 </i>
    <i name="e_fr_energy">   1124.59278948 </i>
    <i name="e_wo_entrp">   1125.13817088 </i>
    <i name="e_0_energy">   1124.86548018 </i>
   </energy>
  </scstep>
  <scstep>
   <time name="dav">   27.37   27.44</time>
   <time name="total">   27.37   27.45</time>
   <energy>
    <i name="e_fr_energy">      2.44103864 </i>
    <i name="e_wo_entrp">      2.63531302 </i>
    <i name="e_0_energy">      2.53817583 </i>
   </energy>
  </scstep>
  <scstep>
   <time name="dav">   27.41   27.47</time>
   <time name="total">   27.41   27.48</time>
   <energy>
    <i name="e_fr_energy">   -199.47622531 </i>
    <i name="e_wo_entrp">   -199.22598959 </i>
    <i name="e_0_energy">   -199.35110745 </i>
   </energy>
  </scstep>
  <scstep>
   <time name="dav">   29.60   29.67</time>
   <time name="total">   29.60   29.68</time>
   <energy>
    <i name="e_fr_energy">   -208.97095358 </i>
    <i name="e_wo_entrp">   -208.68551451 </i>
    <i name="e_0_energy">   -208.82823404 </i>
   </energy>
  </scstep>
  <scstep>
   <time name="dav">   28.31   28.38</time>
   <time name="total">   28.77   28.85</time>
   <energy>
    <i name="e_fr_energy">   -209.32106896 </i>
    <i name="e_wo_entrp">   -209.03878082 </i>
    <i name="e_0_energy">   -209.17992489 </i>
   </energy>
  </scstep>
  <scstep>
   <time name="dav">   30.69   30.76</time>
   <time name="total">   31.19   31.27</time>
   <energy>
    <i name="e_fr_energy">   -237.93785194 </i>
    <i name="e_wo_entrp">   -237.67890970 </i>
    <i name="e_0_energy">   -237.80838082 </i>
   </energy>
  </scstep>
  <scstep>
   <time name="dav">   32.85   32.93</time>
   <time name="total">   33.35   33.44</time>
   <energy>
    <i name="e_fr_energy">   -196.56194060 </i>
    <i name="e_wo_entrp">   -196.22068721 </i>
    <i name="e_0_energy">   -196.39131391 </i>
   </energy>
  </scstep>
  <scstep>
   <time name="dav">   29.21   29.28</time>
   <time name="total">   29.72   29.80</time>
   <energy>
    <i name="e_fr_energy">   -189.48622659 </i>
    <i name="e_wo_entrp">   -189.17480462 </i>
    <i name="e_0_energy">   -189.33051560 </i>
   </energy>
  </scstep>
  <scstep>
   <time name="dav">   32.51   32.59</time>
   <time name="total">   33.02   33.11</time>
   <energy>
    <i name="e_fr_energy">   -188.16330889 </i>
    <i name="e_wo_entrp">   -187.84542223 </i>
    <i name="e_0_energy">   -188.00436556 </i>
   </energy>
  </scstep>
  <scstep>
   <time name="dav">   32.31   32.38</time>
   <time name="total">   32.84   32.92</time>
   <energy>
    <i name="e_fr_energy">   -186.95770699 </i>
    <i name="e_wo_entrp">   -186.60532362 </i>
    <i name="e_0_energy">   -186.78151530 </i>
   </energy>
  </scstep>
  <scstep>
   <time name="dav">   32.67   32.75</time>
   <time name="total">   33.20   33.29</time>
   <energy>
    <i name="e_fr_energy">   -187.05182869 </i>
    <i name="e_wo_entrp">   -186.70973354 </i>
    <i name="e_0_energy">   -186.88078111 </i>
   </energy>
  </scstep>
  <scstep>
   <time name="dav">   30.74   30.82</time>
   <time name="total">   31.27   31.36</time>
   <energy>
    <i name="e_fr_energy">   -186.99438295 </i>
    <i name="e_wo_entrp">   -186.66359664 </i>
    <i name="e_0_energy">   -186.82898980 </i>
   </energy>
  </scstep>
  <scstep>
   <time name="dav">   31.57   31.64</time>
   <time name="total">   32.10   32.18</time>
   <energy>
    <i name="e_fr_energy">   -186.88870013 </i>
    <i name="e_wo_entrp">   -186.55411027 </i>
    <i name="e_0_energy">   -186.72140520 </i>
   </energy>
  </scstep>
  <scstep>
   <time name="dav">   31.45   31.52</time>
   <time name="total">   31.98   32.08</time>
   <energy>
    <i name="e_fr_energy">   -186.85092430 </i>
    <i name="e_wo_entrp">   -186.50638020 </i>
    <i name="e_0_energy">   -186.67865225 </i>
   </energy>
  </scstep>
  <scstep>
   <time name="dav">   30.76   30.84</time>
   <time name="total">   31.29   31.38</time>
   <energy>
    <i name="e_fr_energy">   -186.84943739 </i>
    <i name="e_wo_entrp">   -186.50566048 </i>
    <i name="e_0_energy">   -186.67754893 </i>
   </energy>
  </scstep>
  <scstep>
   <time name="dav">   31.99   32.07</time>
   <time name="total">   32.52   32.61</time>
   <energy>
    <i name="e_fr_energy">   -186.84348320 </i>
    <i name="e_wo_entrp">   -186.50022523 </i>
    <i name="e_0_energy">   -186.67185421 </i>
   </energy>
  </scstep>
  <scstep>
   <time name="dav">   31.17   31.24</time>
   <time name="total">   31.70   31.78</time>
   <energy>
    <i name="e_fr_energy">   -186.84217577 </i>
    <i name="e_wo_entrp">   -186.50039537 </i>
    <i name="e_0_energy">   -186.67128557 </i>
   </energy>
  </scstep>
  <scstep>
   <time name="dav">   29.37   29.44</time>
   <time name="total">   29.91   29.99</time>
   <energy>
    <i name="e_fr_energy">   -186.84194180 </i>
    <i name="e_wo_entrp">   -186.49967277 </i>
    <i name="e_0_energy">   -186.67080729 </i>
   </energy>
  </scstep>
  <scstep>
   <time name="dav">   27.07   27.14</time>
   <time name="total">   27.60   27.68</time>
   <energy>
    <i name="e_fr_energy">   -186.84174002 </i>
    <i name="e_wo_entrp">   -186.49936857 </i>
    <i name="e_0_energy">   -186.67055429 </i>
   </energy>
  </scstep>
  <scstep>
   <time name="dav">   23.73   23.79</time>
   <time name="total">   24.26   24.33</time>
   <energy>
    <i name="e_fr_energy">   -186.84247971 </i>
    <i name="e_wo_entrp">   -186.50054806 </i>
    <i name="e_0_energy">   -186.67151388 </i>
   </energy>
  </scstep>
  <scstep>
   <time name="dav">   21.45   21.50</time>
   <time name="total">   21.98   22.04</time>
   <energy>
    <i name="e_fr_energy">   -186.84326058 </i>
    <i name="e_wo_entrp">   -186.50130084 </i>
    <i name="e_0_energy">   -186.67228071 </i>
   </energy>
  </scstep>
  <scstep>
   <time name="dav">   20.13   20.18</time>
   <time name="total">   20.67   20.73</time>
   <energy>
    <i name="e_fr_energy">   -186.84425805 </i>
    <i name="e_wo_entrp">   -186.50218890 </i>
    <i name="e_0_energy">   -186.67322348 </i>
   </energy>
  </scstep>
  <scstep>
   <time name="dav">   20.19   20.24</time>
   <time name="total">   20.73   20.78</time>
   <energy>
    <i name="e_fr_energy">   -186.84542054 </i>
    <i name="e_wo_entrp">   -186.50347344 </i>
    <i name="e_0_energy">   -186.67444699 </i>
   </energy>
  </scstep>
  <scstep>
   <time name="dav">   18.84   18.89</time>
   <time name="total">   19.37   19.43</time>
   <energy>
    <i name="e_fr_energy">   -186.84597754 </i>
    <i name="e_wo_entrp">   -186.50396990 </i>
    <i name="e_0_energy">   -186.67497372 </i>
   </energy>
  </scstep>
  <scstep>
   <time name="dav">   16.10   16.14</time>
   <time name="total">   16.63   16.68</time>
   <energy>
    <i name="e_fr_energy">   -186.84637035 </i>
    <i name="e_wo_entrp">   -186.50434717 </i>
    <i name="e_0_energy">   -186.67535876 </i>
   </energy>
  </scstep>
  <scstep>
   <time name="dav">   18.83   18.88</time>
   <time name="total">   19.37   19.42</time>
   <energy>
    <i name="e_fr_energy">   -186.84661447 </i>
    <i name="e_wo_entrp">   -186.50460846 </i>
    <i name="e_0_energy">   -186.67561146 </i>
   </energy>
  </scstep>
  <scstep>
   <time name="dav">   20.47   20.52</time>
   <time name="total">   20.51   20.56</time>
   <energy>
    <i name="alphaZ">     81.65567618 </i>
    <i name="ewald">  41891.17178115 </i>
    <i name="hartreedc"> -47833.66757936 </i>
    <i name="XCdc">   -231.60453161 </i>
    <i name="pawpsdc">   4192.08564912 </i>
    <i name="pawaedc">  -3610.08720795 </i>
    <i name="eentropy">     -0.34201196 </i>
    <i name="bandstr">  -1437.50100113 </i>
    <i name="atom">   6761.44252427 </i>
    <i name="e_fr_energy">   -186.84670129 </i>
    <i name="e_wo_entrp">   -186.50468933 </i>
    <i name="e_0_energy">   -186.67569531 </i>
   </energy>
  </scstep>
  <structure>
   <crystal>
    <varray name="basis" >
     <v>       8.66999996       5.03999989       0.00000000 </v>
     <v>      -8.66999982       5.04000013       0.00000000 </v>
     <v>       0.00000000       0.00000000      30.00000000 </v>
    </varray>
    <i name="volume">   2621.80797419 </i>
    <varray name="rec_basis" >
     <v>       0.05767013       0.09920635       0.00000000 </v>
     <v>      -0.05767013       0.09920635       0.00000000 </v>
     <v>       0.00000000       0.00000000       0.03333333 </v>
    </varray>
   </crystal>
   <varray name="positions" >
    <v>       0.33333334       0.00000000       0.00000000 </v>
    <v>       0.33333334       0.66666669       0.00000000 </v>
    <v>       0.66666669       0.00000000       0.00000000 </v>
    <v>       1.00000000       0.33333334       0.00000000 </v>
    <v>       0.66666669       0.33333334       0.00000000 </v>
    <v>       0.00000000       0.00000000       0.00000000 </v>
    <v>       0.00000000       0.66666669       0.00000000 </v>
    <v>       0.33333334       0.33333334       0.00000000 </v>
    <v>       0.66666669       0.66666669       0.00000000 </v>
    <v>       0.11068511       0.22244981       0.95539999 </v>
    <v>       0.22244981       0.11068511       0.04460000 </v>
    <v>       0.11068511       0.55578315       0.95539999 </v>
    <v>       0.22244981       0.44401845       0.04460000 </v>
    <v>       0.11068511       0.88911647       0.95539999 </v>
    <v>       0.22244981       0.77735180       0.04460000 </v>
    <v>       0.44401845       0.22244981       0.95539999 </v>
    <v>       0.55578315       0.11068511       0.04460000 </v>
    <v>       0.44401845       0.55578315       0.95539999 </v>
    <v>       0.55578315       0.44401845       0.04460000 </v>
    <v>       0.44401845       0.88911647       0.95539999 </v>
    <v>       0.55578315       0.77735180       0.04460000 </v>
    <v>       0.77735180       0.22244981       0.95539999 </v>
    <v>       0.88911647       0.11068511       0.04460000 </v>
    <v>       0.77735180       0.55578315       0.95539999 </v>
    <v>       0.88911647       0.44401845       0.04460000 </v>
    <v>       0.77735180       0.88911647       0.95539999 </v>
    <v>       0.88911647       0.77735180       0.04460000 </v>
   </varray>
  </structure>
  <varray name="forces" >
   <v>      -0.01332149       0.12756441      -0.04834549 </v>
   <v>      -0.07908407      -0.07769353      -0.02977490 </v>
   <v>      -0.10651931       0.33158576      -0.01270641 </v>
   <v>       0.00461389      -0.32673375       0.11860566 </v>
   <v>       0.28167044       0.13379098      -0.06665392 </v>
   <v>      -0.26405452       0.12771926       0.09486862 </v>
   <v>       0.06441599      -0.22543065      -0.13634709 </v>
   <v>      -0.00154810      -0.35242293       0.14583998 </v>
   <v>       0.14467371       0.16919096      -0.06563037 </v>
   <v>       0.20132827       0.16187971      -2.88457517 </v>
   <v>       0.64006156       0.16743248       2.14767108 </v>
   <v>       0.33716529       0.70456596      -2.13554000 </v>
   <v>      -0.34725084       0.68564008       2.15681311 </v>
   <v>       0.62403814       0.53252037      -2.10324632 </v>
   <v>       0.24228610       0.53665605       1.41322821 </v>
   <v>       0.38375945      -0.67473524      -2.14828268 </v>
   <v>       0.32588684      -0.67216282       1.41681130 </v>
   <v>      -0.58912608       0.02967162      -2.10433769 </v>
   <v>      -0.29160868      -0.02478329       2.84069458 </v>
   <v>       0.05724659      -0.00777576      -0.76252515 </v>
   <v>      -0.74499310      -0.00309604       1.44311361 </v>
   <v>       0.50742387      -0.70507935      -2.17304452 </v>
   <v>      -0.51896737      -0.67737202       2.18531265 </v>
   <v>       0.04914534       0.14102861      -2.98400820 </v>
   <v>      -0.17098207       0.15798442       2.89349424 </v>
   <v>      -0.65881385      -0.16784346      -2.10544662 </v>
   <v>      -0.07744599      -0.09210184       2.90401149 </v>
  </varray>
  <varray name="stress" >
   <v>       7.25842182       0.04992449      -1.51380666 </v>
   <v>       0.04992442       4.49727284       0.05231826 </v>
   <v>      -1.51380668       0.05231820      30.31655648 </v>
  </varray>
  <energy>
   <i name="e_fr_energy">   -186.84670129 </i>
   <i name="e_wo_entrp">   -186.67569531 </i>
   <i name="e_0_energy">     -0.34201196 </i>
  </energy>
  <time name="totalsc">  781.50  783.61</time>
 </calculation>
 <calculation>
  <scstep>
   <time name="dav">   21.57   21.62</time>
   <time name="total">   22.11   22.17</time>
   <energy>
    <i name="alphaZ">     78.92097432 </i>
    <i name="ewald">  39378.92144694 </i>
    <i name="hartreedc"> -45336.22779146 </i>
    <i name="XCdc">   -239.06935523 </i>
    <i name="pawpsdc">   4192.07110145 </i>
    <i name="pawaedc">  -3610.07280002 </i>
    <i name="eentropy">     -0.27929785 </i>
    <i name="bandstr">  -1413.20575622 </i>
    <i name="atom">   6761.44252427 </i>
    <i name="e_fr_energy">   -187.49895379 </i>
    <i name="e_wo_entrp">   -187.21965594 </i>
    <i name="e_0_energy">   -187.35930486 </i>
   </energy>
  </scstep>
  <scstep>
   <time name="dav">   30.09   30.16</time>
   <time name="total">   30.62   30.71</time>
   <energy>
    <i name="e_fr_energy">   -189.38159121 </i>
    <i name="e_wo_entrp">   -189.05610314 </i>
    <i name="e_0_energy">   -189.21884718 </i>
   </energy>
  </scstep>
  <scstep>
   <time name="dav">   30.29   30.36</time>
   <time name="total">   30.84   30.92</time>
   <energy>
    <i name="e_fr_energy">   -189.35366941 </i>
    <i name="e_wo_entrp">   -189.09674718 </i>
    <i name="e_0_energy">   -189.22520829 </i>
   </energy>
  </scstep>
  <scstep>
   <time name="dav">   29.14   29.21</time>
   <time name="total">   29.68   29.76</time>
   <energy>
    <i name="e_fr_energy">   -188.75431247 </i>
    <i name="e_wo_entrp">   -188.47366197 </i>
    <i name="e_0_energy">   -188.61398722 </i>
   </energy>
  </scstep>
  <scstep>
   <time name="dav">   28.95   29.02</time>
   <time name="total">   29.49   29.57</time>
   <energy>
    <i name="e_fr_energy">   -188.86917614 </i>
    <i name="e_wo_entrp">   -188.58227385 </i>
    <i name="e_0_energy">   -188.72572500 </i>
   </energy>
  </scstep>
  <scstep>
   <time name="dav">   30.69   30.76</time>
   <time name="total">   31.23   31.31</time>
   <energy>
    <i name="e_fr_energy">   -188.73745400 </i>
    <i name="e_wo_entrp">   -188.45601495 </i>
    <i name="e_0_energy">   -188.59673448 </i>
   </energy>
  </scstep>
  <scstep>
   <time name="dav">   29.17   29.24</time>
   <time name="total">   29.72   29.80</time>
   <energy>
    <i name="e_fr_energy">   -188.68695358 </i>
    <i name="e_wo_entrp">   -188.40538663 </i>
    <i name="e_0_energy">   -188.54617011 </i>
   </energy>
  </scstep>
  <scstep>
   <time name="dav">   30.26   30.33</time>
   <time name="total">   30.80   30.88</time>
   <energy>
    <i name="e_fr_energy">   -188.68388033 </i>
    <i name="e_wo_entrp">   -188.40157054 </i>
    <i name="e_0_energy">   -188.54272543 </i>
   </energy>
  </scstep>
  <scstep>
   <time name="dav">   28.91   28.98</time>
   <time name="total">   29.45   29.53</time>
   <energy>
    <i name="e_fr_energy">   -188.65589999 </i>
    <i name="e_wo_entrp">   -188.37666740 </i>
    <i name="e_0_energy">   -188.51628370 </i>
   </energy>
  </scstep>
  <scstep>
   <time name="dav">   31.13   31.20</time>
   <time name="total">   31.67   31.75</time>
   <energy>
    <i name="e_fr_energy">   -188.65496819 </i>
    <i name="e_wo_entrp">   -188.37673130 </i>
    <i name="e_0_energy">   -188.51584975 </i>
   </energy>
  </scstep>
  <scstep>
   <time name="dav">   30.63   30.70</time>
   <time name="total">   31.17   31.26</time>
   <energy>
    <i name="e_fr_energy">   -188.65453147 </i>
    <i name="e_wo_entrp">   -188.37697237 </i>
    <i name="e_0_energy">   -188.51575192 </i>
   </energy>
  </scstep>
  <scstep>
   <time name="dav">   27.85   27.92</time>
   <time name="total">   27.89   27.96</time>
   <energy>
    <i name="alphaZ">     78.92097432 </i>
    <i name="ewald">  39378.92144694 </i>
    <i name="hartreedc"> -45347.20931482 </i>
    <i name="XCdc">   -237.97743489 </i>
    <i name="pawpsdc">   3952.39798523 </i>
    <i name="pawaedc">  -3366.92314137 </i>
    <i name="eentropy">     -0.27771265 </i>
    <i name="bandstr">  -1407.94987350 </i>
    <i name="atom">   6761.44252427 </i>
    <i name="e_fr_energy">   -188.65454647 </i>
    <i name="e_wo_entrp">   -188.37683382 </i>
    <i name="e_0_energy">   -188.51569014 </i>
   </energy>
  </scstep>
  <structure>
   <crystal>
    <varray name="basis" >
     <v>       8.85473617       5.10753861       0.00000000 </v>
     <v>      -8.85326463       5.10500768       0.00000000 </v>
     <v>       0.00000000       0.00000000      30.00000000 </v>
    </varray>
    <i name="volume">   2712.65661343 </i>
    <varray name="rec_basis" >
     <v>       0.05645765       0.09791064       0.00000000 </v>
     <v>      -0.05648564       0.09792691       0.00000000 </v>
     <v>       0.00000000       0.00000000       0.03333333 </v>
    </varray>
   </crystal>
   <varray name="positions" >
    <v>       0.33390680       0.00064758      -0.00007774 </v>
    <v>       0.33274148       0.66651487      -0.00004788 </v>
    <v>       0.66795729       0.00188332      -0.00002043 </v>
    <v>       0.99844910       0.33175677       0.00019073 </v>
    <v>       0.66809066       0.33319001      -0.00010719 </v>
    <v>      -0.00012338       0.00134590       0.00015256 </v>
    <v>      -0.00089969       0.66540856      -0.00021926 </v>
    <v>       0.33164235       0.33165096       0.00023452 </v>
    <v>       0.66787894       0.66707393      -0.00010554 </v>
    <v>       0.11201999       0.22266443       0.95076134 </v>
    <v>       0.22503189       0.10970568       0.04805364 </v>
    <v>       0.11499519       0.55821714       0.95196585 </v>
    <v>       0.22476516       0.44826602       0.04806835 </v>
    <v>       0.11496991       0.88992892       0.95201778 </v>
    <v>       0.22569231       0.77924614       0.04687259 </v>
    <v>       0.44185687       0.21815286       0.95194536 </v>
    <v>       0.55347287       0.10656148       0.04687836 </v>
    <v>       0.44252142       0.55756420       0.95201603 </v>
    <v>       0.55485324       0.44471114       0.04916809 </v>
    <v>       0.44414051       0.88891998       0.95417378 </v>
    <v>       0.55369564       0.77940967       0.04692065 </v>
    <v>       0.77538904       0.21766358       0.95190554 </v>
    <v>       0.88443073       0.10888707       0.04811417 </v>
    <v>       0.77816349       0.55632138       0.95060144 </v>
    <v>       0.88939688       0.44525026       0.04925299 </v>
    <v>       0.77471558       0.89014610       0.95201425 </v>
    <v>       0.88846020       0.77712647       0.04926991 </v>
   </varray>
  </structure>
  <varray name="forces" >
   <v>      -0.10007094       0.11424137      -0.08439463 </v>
   <v>      -0.03320318      -0.09781306      -0.00243582 </v>
   <v>      -0.04986744       0.32956452       0.01067295 </v>
   <v>       0.05792264      -0.27695144       0.03014608 </v>
   <v>       0.09179099       0.43802458       0.03394367 </v>
   <v>      -0.25398703       0.21615910      -0.04076616 </v>
   <v>      -0.12637696      -0.48783232      -0.05973243 </v>
   <v>      -0.03957249      -0.39820114       0.03725826 </v>
   <v>       0.42520977       0.18364185       0.04743880 </v>
   <v>       0.04701347       0.11358703      -0.09106955 </v>
   <v>      -0.01221530       0.10337545       0.11123828 </v>
   <v>      -0.11229338       0.04026360       0.04889845 </v>
   <v>       0.11031567       0.04063477      -0.00993090 </v>
   <v>       0.07977241      -0.05371069       0.13705191 </v>
   <v>      -0.06044185      -0.05480138      -0.16064776 </v>
   <v>      -0.10030080      -0.04500540       0.06477760 </v>
   <v>       0.02631645      -0.05688730      -0.07487253 </v>
   <v>       0.10456548       0.00450296       0.14474833 </v>
   <v>      -0.11005460       0.00253606      -0.10068474 </v>
   <v>       0.00715109       0.01099272       0.19588957 </v>
   <v>       0.08433543       0.01008922      -0.24295673 </v>
   <v>       0.03650740      -0.08605863      -0.15144093 </v>
   <v>      -0.04542448      -0.08378400       0.19628337 </v>
   <v>      -0.06061938       0.10686220      -0.18102635 </v>
   <v>      -0.04956631       0.12036532       0.13747652 </v>
   <v>       0.00528679      -0.10954674       0.01797820 </v>
   <v>       0.07780656      -0.08424866      -0.01384347 </v>
  </varray>
  <varray name="stress" >
   <v>     -19.99212310       0.01078069       0.01054994 </v>
   <v>       0.01078077     -19.58200111       0.01048861 </v>
   <v>       0.01054988       0.01048853      -1.80546822 </v>
  </varray>
  <energy>
   <i name="e_fr_energy">   -188.65454647 </i>
   <i name="e_wo_entrp">   -188.51569014 </i>
   <i name="e_0_energy">     -0.27771265 </i>
  </energy>
  <time name="totalsc">  396.29  397.34</time>
 </calculation>
 <calculation>
  <scstep>
   <time name="dav">   23.80   23.86</time>
   <time name="total">   24.33   24.39</time>
   <energy>
    <i name="alphaZ">     82.34623868 </i>
    <i name="ewald">  41302.52090352 </i>
    <i name="hartreedc"> -47301.40069145 </i>
    <i name="XCdc">   -233.85627996 </i>
    <i name="pawpsdc">   3950.55317777 </i>
    <i name="pawaedc">  -3365.05672461 </i>
    <i name="eentropy">     -0.23207548 </i>
    <i name="bandstr">  -1386.89330438 </i>
    <i name="atom">   6761.44252427 </i>
    <i name="e_fr_energy">   -190.57623163 </i>
    <i name="e_wo_entrp">   -190.34415615 </i>
    <i name="e_0_energy">   -190.46019389 </i>
   </energy>
  </scstep>
  <scstep>
   <time name="dav">   28.44   28.51</time>
   <time name="total">   28.96   29.04</time>
   <energy>
    <i name="e_fr_energy">   -190.52554351 </i>
    <i name="e_wo_entrp">   -190.30837051 </i>
    <i name="e_0_energy">   -190.41695701 </i>
   </energy>
  </scstep>
  <scstep>
   <time name="dav">   30.00   30.07</time>
   <time name="total">   30.52   30.60</time>
   <energy>
    <i name="e_fr_energy">   -190.05976631 </i>
    <i name="e_wo_entrp">   -189.81001538 </i>
    <i name="e_0_energy">   -189.93489084 </i>
   </energy>
  </scstep>
  <scstep>
   <time name="dav">   31.48   31.56</time>
   <time name="total">   32.01   32.10</time>
   <energy>
    <i name="e_fr_energy">   -189.84866987 </i>
    <i name="e_wo_entrp">   -189.62607703 </i>
    <i name="e_0_energy">   -189.73737345 </i>
   </energy>
  </scstep>
  <scstep>
   <time name="dav">   29.82   29.90</time>
   <time name="total">   30.35   30.44</time>
   <energy>
    <i name="e_fr_energy">   -189.81305014 </i>
    <i name="e_wo_entrp">   -189.57215393 </i>
    <i name="e_0_energy">   -189.69260204 </i>
   </energy>
  </scstep>
  <scstep>
   <time name="dav">   30.90   30.97</time>
   <time name="total">   31.43   31.51</time>
   <energy>
    <i name="e_fr_energy">   -189.74749738 </i>
    <i name="e_wo_entrp">   -189.51647236 </i>
    <i name="e_0_energy">   -189.63198487 </i>
   </energy>
  </scstep>
  <scstep>
   <time name="dav">   28.67   28.74</time>
   <time name="total">   29.20   29.28</time>
   <energy>
    <i name="e_fr_energy">   -189.74270627 </i>
    <i name="e_wo_entrp">   -189.50981266 </i>
    <i name="e_0_energy">   -189.62625947 </i>
   </energy>
  </scstep>
  <scstep>
   <time name="dav">   30.74   30.81</time>
   <time name="total">   31.26   31.35</time>
   <energy>
    <i name="e_fr_energy">   -189.74290847 </i>
    <i name="e_wo_entrp">   -189.51056758 </i>
    <i name="e_0_energy">   -189.62673803 </i>
   </energy>
  </scstep>
  <scstep>
   <time name="dav">   28.13   28.19</time>
   <time name="total">   28.65   28.73</time>
   <energy>
    <i name="e_fr_energy">   -189.74190354 </i>
    <i name="e_wo_entrp">   -189.50943770 </i>
    <i name="e_0_energy">   -189.62567062 </i>
   </energy>
  </scstep>
  <scstep>
   <time name="dav">   25.15   25.21</time>
   <time name="total">   25.68   25.75</time>
   <energy>
    <i name="e_fr_energy">   -189.74215448 </i>
    <i name="e_wo_entrp">   -189.50943006 </i>
    <i name="e_0_energy">   -189.62579227 </i>
   </energy>
  </scstep>
  <scstep>
   <time name="dav">   21.54   21.60</time>
   <time name="total">   21.58   21.64</time>
   <energy>
    <i name="alphaZ">     82.34623868 </i>
    <i name="ewald">  41302.52090352 </i>
    <i name="hartreedc"> -47274.49324539 </i>
    <i name="XCdc">   -235.25031223 </i>
    <i name="pawpsdc">   4038.05711107 </i>
    <i name="pawaedc">  -3453.75088383 </i>
    <i name="eentropy">     -0.23268855 </i>
    <i name="bandstr">  -1410.38172848 </i>
    <i name="atom">   6761.44252427 </i>
    <i name="e_fr_energy">   -189.74208094 </i>
    <i name="e_wo_entrp">   -189.50939239 </i>
    <i name="e_0_energy">   -189.62573667 </i>
   </energy>
  </scstep>
  <structure>
   <crystal>
    <varray name="basis" >
     <v>       8.66674983       5.00139817       0.00000000 </v>
     <v>      -8.66519259       4.99871711       0.00000000 </v>
     <v>       0.00000000       0.00000000      30.00000000 </v>
    </varray>
    <i name="volume">   2599.82127131 </i>
    <varray name="rec_basis" >
     <v>       0.05768147       0.09998986       0.00000000 </v>
     <v>      -0.05771241       0.10000783       0.00000000 </v>
     <v>       0.00000000       0.00000000       0.03333333 </v>
    </varray>
   </crystal>
   <varray name="positions" >
    <v>       0.33400057       0.00093285      -0.00012540 </v>
    <v>       0.33254749       0.66638438      -0.00004926 </v>
    <v>       0.66845621       0.00247773      -0.00001441 </v>
    <v>       0.99804515       0.33124192       0.00020775 </v>
    <v>       0.66890494       0.33382880      -0.00008802 </v>
    <v>      -0.00000777       0.00194751       0.00012954 </v>
    <v>      -0.00182966       0.66472025      -0.00025299 </v>
    <v>       0.33094405       0.33102827       0.00025556 </v>
    <v>       0.66859018       0.66697170      -0.00007875 </v>
    <v>       0.11225335       0.22280787       0.95070991 </v>
    <v>       0.22519167       0.10988886       0.04811646 </v>
    <v>       0.11495458       0.55839138       0.95199346 </v>
    <v>       0.22493806       0.44822787       0.04806274 </v>
    <v>       0.11495712       0.88976349       0.95209517 </v>
    <v>       0.22554361       0.77921307       0.04678188 </v>
    <v>       0.44168630       0.21817418       0.95198194 </v>
    <v>       0.55340368       0.10644194       0.04683608 </v>
    <v>       0.44262889       0.55747162       0.95209776 </v>
    <v>       0.55475219       0.44482066       0.04911123 </v>
    <v>       0.44416558       0.88893138       0.95428439 </v>
    <v>       0.55379304       0.77934571       0.04678347 </v>
    <v>       0.77528122       0.21748589       0.95182003 </v>
    <v>       0.88424832       0.10879155       0.04822501 </v>
    <v>       0.77828275       0.55655665       0.95049922 </v>
    <v>       0.88954911       0.44549736       0.04933062 </v>
    <v>       0.77453894       0.88995932       0.95202440 </v>
    <v>       0.88839488       0.77691226       0.04926209 </v>
   </varray>
  </structure>
  <varray name="forces" >
   <v>      -0.15959919       0.10269129      -0.07178957 </v>
   <v>       0.00651021      -0.13819790       0.00587794 </v>
   <v>      -0.01046175       0.34779337       0.01498657 </v>
   <v>       0.08570897      -0.24688335       0.00083102 </v>
   <v>       0.02154888       0.54142905       0.04065234 </v>
   <v>      -0.25683209       0.24888514      -0.05561402 </v>
   <v>      -0.17981996      -0.58211010      -0.02498839 </v>
   <v>      -0.06910341      -0.40155168      -0.00144568 </v>
   <v>       0.52181554       0.15780743       0.06022169 </v>
   <v>      -0.00406487       0.05125234      -0.64661927 </v>
   <v>       0.11347553       0.02028869       0.63222862 </v>
   <v>       0.01729714       0.08903907      -0.44291638 </v>
   <v>      -0.01863251       0.09848591       0.49251504 </v>
   <v>       0.07388520       0.07111360      -0.34306989 </v>
   <v>       0.00798515       0.06734207       0.27827055 </v>
   <v>       0.01325189      -0.09019094      -0.41562113 </v>
   <v>       0.05941414      -0.11276022       0.36437715 </v>
   <v>      -0.02813014       0.00191486      -0.33562647 </v>
   <v>      -0.04041631      -0.00386632       0.43488208 </v>
   <v>       0.01655646       0.01587039      -0.21172375 </v>
   <v>      -0.06701590       0.01382855       0.19281150 </v>
   <v>       0.07672023      -0.14531862      -0.64572069 </v>
   <v>      -0.09091554      -0.15630151       0.70824037 </v>
   <v>      -0.02418360       0.03348945      -0.78824412 </v>
   <v>       0.00002809       0.06187079       0.69648495 </v>
   <v>      -0.11050896      -0.04306540      -0.47459936 </v>
   <v>       0.04548680      -0.00285596       0.53559890 </v>
  </varray>
  <varray name="stress" >
   <v>     -10.20251761      -0.01287668      -0.01875166 </v>
   <v>      -0.01287667      -9.88949249      -0.00015255 </v>
   <v>      -0.01875169      -0.00015270       6.51929841 </v>
  </varray>
  <energy>
   <i name="e_fr_energy">   -189.74208094 </i>
   <i name="e_wo_entrp">   -189.62573667 </i>
   <i name="e_0_energy">     -0.23268855 </i>
  </energy>
  <time name="totalsc">  355.64  356.58</time>
 </calculation>
 <calculation>
  <scstep>
   <time name="dav">   21.61   21.66</time>
   <time name="total">   22.12   22.18</time>
   <energy>
    <i name="alphaZ">     85.83229816 </i>
    <i name="ewald">  42838.26364845 </i>
    <i name="hartreedc"> -48854.86828789 </i>
    <i name="XCdc">   -232.95718812 </i>
    <i name="pawpsdc">   4038.56461686 </i>
    <i name="pawaedc">  -3454.25919890 </i>
    <i name="eentropy">     -0.19036343 </i>
    <i name="bandstr">  -1373.14552157 </i>
    <i name="atom">   6761.44252427 </i>
    <i name="e_fr_energy">   -191.31747216 </i>
    <i name="e_wo_entrp">   -191.12710873 </i>
    <i name="e_0_energy">   -191.22229045 </i>
   </energy>
  </scstep>
  <scstep>
   <time name="dav">   32.36   32.43</time>
   <time name="total">   32.87   32.95</time>
   <energy>
    <i name="e_fr_energy">   -191.11797495 </i>
    <i name="e_wo_entrp">   -190.92927215 </i>
    <i name="e_0_energy">   -191.02362355 </i>
   </energy>
  </scstep>
  <scstep>
   <time name="dav">   29.85   29.92</time>
   <time name="total">   30.36   30.45</time>
   <energy>
    <i name="e_fr_energy">   -191.31220393 </i>
    <i name="e_wo_entrp">   -191.09717206 </i>
    <i name="e_0_energy">   -191.20468799 </i>
   </energy>
  </scstep>
  <scstep>
   <time name="dav">   29.14   29.21</time>
   <time name="total">   29.66   29.74</time>
   <energy>
    <i name="e_fr_energy">   -190.90050279 </i>
    <i name="e_wo_entrp">   -190.70302799 </i>
    <i name="e_0_energy">   -190.80176539 </i>
   </energy>
  </scstep>
  <scstep>
   <time name="dav">   27.55   27.62</time>
   <time name="total">   28.07   28.14</time>
   <energy>
    <i name="e_fr_energy">   -190.90285947 </i>
    <i name="e_wo_entrp">   -190.71910839 </i>
    <i name="e_0_energy">   -190.81098393 </i>
   </energy>
  </scstep>
  <scstep>
   <time name="dav">   29.59   29.66</time>
   <time name="total">   30.10   30.18</time>
   <energy>
    <i name="e_fr_energy">   -190.73279374 </i>
    <i name="e_wo_entrp">   -190.53722150 </i>
    <i name="e_0_energy">   -190.63500762 </i>
   </energy>
  </scstep>
  <scstep>
   <time name="dav">   30.26   30.34</time>
   <time name="total">   30.78   30.87</time>
   <energy>
    <i name="e_fr_energy">   -190.73287208 </i>
    <i name="e_wo_entrp">   -190.53802598 </i>
    <i name="e_0_energy">   -190.63544903 </i>
   </energy>
  </scstep>
  <scstep>
   <time name="dav">   28.75   28.82</time>
   <time name="total">   29.27   29.34</time>
   <energy>
    <i name="e_fr_energy">   -190.73056950 </i>
    <i name="e_wo_entrp">   -190.53568812 </i>
    <i name="e_0_energy">   -190.63312881 </i>
   </energy>
  </scstep>
  <scstep>
   <time name="dav">   28.48   28.55</time>
   <time name="total">   29.00   29.08</time>
   <energy>
    <i name="e_fr_energy">   -190.72846793 </i>
    <i name="e_wo_entrp">   -190.53351304 </i>
    <i name="e_0_energy">   -190.63099048 </i>
   </energy>
  </scstep>
  <scstep>
   <time name="dav">   27.23   27.29</time>
   <time name="total">   27.75   27.82</time>
   <energy>
    <i name="e_fr_energy">   -190.72873261 </i>
    <i name="e_wo_entrp">   -190.53366255 </i>
    <i name="e_0_energy">   -190.63119758 </i>
   </energy>
  </scstep>
  <scstep>
   <time name="dav">   25.72   25.79</time>
   <time name="total">   26.24   26.31</time>
   <energy>
    <i name="e_fr_energy">   -190.72854570 </i>
    <i name="e_wo_entrp">   -190.53343152 </i>
    <i name="e_0_energy">   -190.63098861 </i>
   </energy>
  </scstep>
  <scstep>
   <time name="dav">   19.54   19.59</time>
   <time name="total">   19.58   19.63</time>
   <energy>
    <i name="alphaZ">     85.83229816 </i>
    <i name="ewald">  42838.26364845 </i>
    <i name="hartreedc"> -48826.28127151 </i>
    <i name="XCdc">   -234.29585658 </i>
    <i name="pawpsdc">   4063.51553776 </i>
    <i name="pawaedc">  -3479.38344578 </i>
    <i name="eentropy">     -0.19515477 </i>
    <i name="bandstr">  -1399.62682892 </i>
    <i name="atom">   6761.44252427 </i>
    <i name="e_fr_energy">   -190.72854893 </i>
    <i name="e_wo_entrp">   -190.53339415 </i>
    <i name="e_0_energy">   -190.63097154 </i>
   </energy>
  </scstep>
  <structure>
   <crystal>
    <varray name="basis" >
     <v>       8.48432643       4.90044435       0.00000000 </v>
     <v>      -8.48366017       4.89930457       0.00000000 </v>
     <v>       0.00000000       0.00000000      30.00000000 </v>
    </varray>
    <i name="volume">   2494.23011526 </i>
    <varray name="rec_basis" >
     <v>       0.05892766       0.10203942       0.00000000 </v>
     <v>      -0.05894137       0.10204744       0.00000000 </v>
     <v>       0.00000000       0.00000000       0.03333333 </v>
    </varray>
   </crystal>
   <varray name="positions" >
    <v>       0.33395221       0.00220947      -0.00026319 </v>
    <v>       0.33166223       0.66533731      -0.00003001 </v>
    <v>       0.67069784       0.00468165       0.00002027 </v>
    <v>       0.99692464       0.32942172       0.00018450 </v>
    <v>       0.67252913       0.33750066       0.00000180 </v>
    <v>       0.00070031       0.00451971       0.00000183 </v>
    <v>      -0.00643566       0.66156695      -0.00027510 </v>
    <v>       0.32813005       0.32879828       0.00021961 </v>
    <v>       0.67153721       0.66587003       0.00005673 </v>
    <v>       0.11232986       0.22306118       0.94889895 </v>
    <v>       0.22570193       0.10921656       0.04986821 </v>
    <v>       0.11588332       0.55882132       0.95065823 </v>
    <v>       0.22544594       0.44924261       0.04950964 </v>
    <v>       0.11597285       0.89026252       0.95097648 </v>
    <v>       0.22639822       0.77981266       0.04773142 </v>
    <v>       0.44122038       0.21728472       0.95071290 </v>
    <v>       0.55282042       0.10533375       0.04796405 </v>
    <v>       0.44234140       0.55777028       0.95099425 </v>
    <v>       0.55466646       0.44482598       0.05046710 </v>
    <v>       0.44435048       0.88896954       0.95349920 </v>
    <v>       0.55342860       0.77990223       0.04755351 </v>
    <v>       0.77455845       0.21609259       0.95006311 </v>
    <v>       0.88269461       0.10802576       0.05012634 </v>
    <v>       0.77827405       0.55661754       0.94835124 </v>
    <v>       0.88986169       0.44566668       0.05124770 </v>
    <v>       0.77386955       0.89042247       0.95062297 </v>
    <v>       0.88869827       0.77698030       0.05083815 </v>
   </varray>
  </structure>
  <varray name="forces" >
   <v>      -0.16621974       0.07319957      -0.02073688 </v>
   <v>      -0.00526383      -0.11732000       0.02107132 </v>
   <v>       0.00034652       0.28920989       0.02203016 </v>
   <v>       0.15647687      -0.19328580      -0.03068009 </v>
   <v>      -0.05393472       0.67249237       0.02055705 </v>
   <v>      -0.27912302       0.34159011      -0.02585596 </v>
   <v>      -0.19405486      -0.66928366       0.02668140 </v>
   <v>      -0.15155597      -0.48070764      -0.03242756 </v>
   <v>       0.63330100       0.12439725       0.03723335 </v>
   <v>      -0.04750259      -0.00694465      -0.50254725 </v>
   <v>       0.03659005      -0.02589459       0.46529554 </v>
   <v>      -0.00622411      -0.02577953      -0.28014037 </v>
   <v>      -0.02298336      -0.01578608       0.37234129 </v>
   <v>       0.01669746      -0.01930989      -0.18010174 </v>
   <v>      -0.03869256      -0.02268035       0.14406785 </v>
   <v>       0.03189984       0.02698254      -0.22673051 </v>
   <v>      -0.00144977       0.03107228       0.23718696 </v>
   <v>       0.03635133       0.00237114      -0.15093247 </v>
   <v>       0.00621220      -0.03722712       0.25464952 </v>
   <v>       0.01524049       0.03458381      -0.21808280 </v>
   <v>       0.01262767       0.03669955       0.09051831 </v>
   <v>       0.01082403      -0.04436680      -0.43587051 </v>
   <v>      -0.04901943      -0.06001940       0.53293203 </v>
   <v>       0.01964339      -0.02211571      -0.72150025 </v>
   <v>       0.06196412       0.02623733       0.52240002 </v>
   <v>      -0.03581864      -0.00767758      -0.27491057 </v>
   <v>       0.01366761       0.08956298       0.35355217 </v>
  </varray>
  <varray name="stress" >
   <v>      -5.87912993       0.06772376      -0.01255862 </v>
   <v>       0.06772358      -5.72777392       0.08548658 </v>
   <v>      -0.01255870       0.08548654       4.55022904 </v>
  </varray>
  <energy>
   <i name="e_fr_energy">   -190.72854893 </i>
   <i name="e_wo_entrp">   -190.63097154 </i>
   <i name="e_0_energy">     -0.19515477 </i>
  </energy>
  <time name="totalsc">  377.45  378.46</time>
 </calculation>
 <calculation>
  <scstep>
   <time name="dav">   21.64   21.70</time>
   <time name="total">   22.15   22.21</time>
   <energy>
    <i name="alphaZ">     90.23363887 </i>
    <i name="ewald">  44692.91705657 </i>
    <i name="hartreedc"> -50736.55883947 </i>
    <i name="XCdc">   -231.80581963 </i>
    <i name="pawpsdc">   4063.45551185 </i>
    <i name="pawaedc">  -3479.32004496 </i>
    <i name="eentropy">     -0.17703764 </i>
    <i name="bandstr">  -1352.35277677 </i>
    <i name="atom">   6761.44252427 </i>
    <i name="e_fr_energy">   -192.16578689 </i>
    <i name="e_wo_entrp">   -191.98874925 </i>
    <i name="e_0_energy">   -192.07726807 </i>
   </energy>
  </scstep>
  <scstep>
   <time name="dav">   27.25   27.32</time>
   <time name="total">   27.76   27.83</time>
   <energy>
    <i name="e_fr_energy">   -191.88522615 </i>
    <i name="e_wo_entrp">   -191.69215201 </i>
    <i name="e_0_energy">   -191.78868908 </i>
   </energy>
  </scstep>
  <scstep>
   <time name="dav">   29.62   29.69</time>
   <time name="total">   30.12   30.20</time>
   <energy>
    <i name="e_fr_energy">   -192.36231271 </i>
    <i name="e_wo_entrp">   -192.17849823 </i>
    <i name="e_0_energy">   -192.27040547 </i>
   </energy>
  </scstep>
  <scstep>
   <time name="dav">   28.47   28.54</time>
   <time name="total">   28.98   29.06</time>
   <energy>
    <i name="e_fr_energy">   -191.68098378 </i>
    <i name="e_wo_entrp">   -191.50031439 </i>
    <i name="e_0_energy">   -191.59064908 </i>
   </energy>
  </scstep>
  <scstep>
   <time name="dav">   29.78   29.85</time>
   <time name="total">   30.28   30.37</time>
   <energy>
    <i name="e_fr_energy">   -191.62713256 </i>
    <i name="e_wo_entrp">   -191.43089709 </i>
    <i name="e_0_energy">   -191.52901482 </i>
   </energy>
  </scstep>
  <scstep>
   <time name="dav">   30.01   30.08</time>
   <time name="total">   30.51   30.59</time>
   <energy>
    <i name="e_fr_energy">   -191.47395266 </i>
    <i name="e_wo_entrp">   -191.28852585 </i>
    <i name="e_0_energy">   -191.38123925 </i>
   </energy>
  </scstep>
  <scstep>
   <time name="dav">   30.71   30.79</time>
   <time name="total">   31.22   31.30</time>
   <energy>
    <i name="e_fr_energy">   -191.46519734 </i>
    <i name="e_wo_entrp">   -191.28281012 </i>
    <i name="e_0_energy">   -191.37400373 </i>
   </energy>
  </scstep>
  <scstep>
   <time name="dav">   30.03   30.10</time>
   <time name="total">   30.53   30.62</time>
   <energy>
    <i name="e_fr_energy">   -191.44622451 </i>
    <i name="e_wo_entrp">   -191.25967628 </i>
    <i name="e_0_energy">   -191.35295039 </i>
   </energy>
  </scstep>
  <scstep>
   <time name="dav">   28.04   28.10</time>
   <time name="total">   28.54   28.62</time>
   <energy>
    <i name="e_fr_energy">   -191.44366692 </i>
    <i name="e_wo_entrp">   -191.25798490 </i>
    <i name="e_0_energy">   -191.35082591 </i>
   </energy>
  </scstep>
  <scstep>
   <time name="dav">   28.46   28.53</time>
   <time name="total">   28.97   29.04</time>
   <energy>
    <i name="e_fr_energy">   -191.44383127 </i>
    <i name="e_wo_entrp">   -191.25764048 </i>
    <i name="e_0_energy">   -191.35073587 </i>
   </energy>
  </scstep>
  <scstep>
   <time name="dav">   26.06   26.12</time>
   <time name="total">   26.09   26.16</time>
   <energy>
    <i name="alphaZ">     90.23363887 </i>
    <i name="ewald">  44692.91705657 </i>
    <i name="hartreedc"> -50702.22855477 </i>
    <i name="XCdc">   -233.32853241 </i>
    <i name="pawpsdc">   4086.81773527 </i>
    <i name="pawaedc">  -3502.78918685 </i>
    <i name="eentropy">     -0.18619954 </i>
    <i name="bandstr">  -1384.32224024 </i>
    <i name="atom">   6761.44252427 </i>
    <i name="e_fr_energy">   -191.44375881 </i>
    <i name="e_wo_entrp">   -191.25755927 </i>
    <i name="e_0_energy">   -191.35065904 </i>
   </energy>
  </scstep>
  <structure>
   <crystal>
    <varray name="basis" >
     <v>       8.27244160       4.78477890       0.00000000 </v>
     <v>      -8.26835460       4.77771558       0.00000000 </v>
     <v>       0.00000000       0.00000000      30.00000000 </v>
    </varray>
    <i name="volume">   2372.56865185 </i>
    <varray name="rec_basis" >
     <v>       0.06041194       0.10454940       0.00000000 </v>
     <v>      -0.06050125       0.10460108       0.00000000 </v>
     <v>       0.00000000       0.00000000       0.03333333 </v>
    </varray>
   </crystal>
   <varray name="positions" >
    <v>       0.33359372       0.00440274      -0.00036130 </v>
    <v>       0.33010552       0.66369937       0.00005465 </v>
    <v>       0.67446870       0.00833656       0.00010920 </v>
    <v>       0.99563343       0.32594739       0.00004922 </v>
    <v>       0.68046485       0.34629462       0.00010173 </v>
    <v>       0.00287931       0.01063654      -0.00013260 </v>
    <v>      -0.01626330       0.65465106      -0.00016128 </v>
    <v>       0.32128410       0.32404800       0.00006772 </v>
    <v>       0.67760862       0.66282286       0.00023116 </v>
    <v>       0.11177851       0.22327324       0.94625444 </v>
    <v>       0.22576357       0.10818763       0.05234123 </v>
    <v>       0.11609513       0.55864153       0.94895953 </v>
    <v>       0.22523500       0.44978297       0.05156613 </v>
    <v>       0.11641305       0.89037475       0.94969079 </v>
    <v>       0.22650902       0.78015438       0.04881626 </v>
    <v>       0.44162502       0.21689046       0.94922588 </v>
    <v>       0.55290434       0.10520985       0.04941922 </v>
    <v>       0.44233614       0.55781744       0.94981375 </v>
    <v>       0.55436109       0.44428843       0.05211618 </v>
    <v>       0.44488480       0.88925298       0.95222360 </v>
    <v>       0.55361249       0.78056790       0.04840319 </v>
    <v>       0.77387907       0.21499713       0.94771165 </v>
    <v>       0.88111844       0.10738023       0.05286638 </v>
    <v>       0.77803965       0.55606589       0.94481816 </v>
    <v>       0.89053836       0.44541484       0.05399140 </v>
    <v>       0.77338836       0.89098339       0.94892471 </v>
    <v>       0.88995746       0.77809227       0.05289892 </v>
   </varray>
  </structure>
  <varray name="forces" >
   <v>      -0.04910633       0.02280470      -0.03189618 </v>
   <v>      -0.10233676      -0.03597572      -0.01851074 </v>
   <v>      -0.05924740       0.13051585      -0.00511065 </v>
   <v>       0.22412345      -0.00451414       0.00307286 </v>
   <v>      -0.04634848       0.40197201      -0.01961427 </v>
   <v>      -0.21217011       0.32514099       0.04422377 </v>
   <v>      -0.01366205      -0.35277531       0.04891287 </v>
   <v>      -0.28467508      -0.44052747      -0.02736140 </v>
   <v>       0.45943821       0.03264484      -0.05797343 </v>
   <v>      -0.09368682      -0.05503599      -0.31745364 </v>
   <v>      -0.07768245      -0.04635720       0.13856849 </v>
   <v>      -0.09739384      -0.12307022       0.01444261 </v>
   <v>       0.03612105      -0.12623188       0.09636076 </v>
   <v>      -0.04782007      -0.18225194       0.15787163 </v>
   <v>      -0.12154662      -0.17988899      -0.07925219 </v>
   <v>      -0.02153991       0.16772335       0.14151836 </v>
   <v>      -0.09903591       0.21730980      -0.04153105 </v>
   <v>       0.13975572      -0.00150798       0.16064273 </v>
   <v>       0.03423375      -0.11042899      -0.07538872 </v>
   <v>      -0.01020519       0.04025526      -0.00839882 </v>
   <v>       0.22344840       0.04853436      -0.13422506 </v>
   <v>      -0.08498481       0.07085469      -0.05423663 </v>
   <v>       0.02045274       0.04779763       0.14981084 </v>
   <v>       0.03076333      -0.03675779      -0.44385886 </v>
   <v>       0.15786896       0.00743823       0.21042051 </v>
   <v>       0.09417716       0.00825847       0.08622282 </v>
   <v>       0.00105905       0.17407347       0.06274339 </v>
  </varray>
  <varray name="stress" >
   <v>      -0.09399878       0.04301920       0.29394961 </v>
   <v>       0.04301893       0.45256877       0.15613616 </v>
   <v>       0.29394982       0.15613606      -0.35739474 </v>
  </varray>
  <energy>
   <i name="e_fr_energy">   -191.44375881 </i>
   <i name="e_wo_entrp">   -191.35065904 </i>
   <i name="e_0_energy">     -0.18619954 </i>
  </energy>
  <time name="totalsc">  357.05  358.00</time>
 </calculation>
 <calculation>
  <scstep>
   <time name="dav">   21.65   21.70</time>
   <time name="total">   22.16   22.22</time>
   <energy>
    <i name="alphaZ">     90.14157050 </i>
    <i name="ewald">  44626.95766134 </i>
    <i name="hartreedc"> -50636.18800475 </i>
    <i name="XCdc">   -233.49497739 </i>
    <i name="pawpsdc">   4087.26730778 </i>
    <i name="pawaedc">  -3503.23718397 </i>
    <i name="eentropy">     -0.18746665 </i>
    <i name="bandstr">  -1384.22474516 </i>
    <i name="atom">   6761.44252427 </i>
    <i name="e_fr_energy">   -191.52331402 </i>
    <i name="e_wo_entrp">   -191.33584737 </i>
    <i name="e_0_energy">   -191.42958069 </i>
   </energy>
  </scstep>
  <scstep>
   <time name="dav">   32.81   32.89</time>
   <time name="total">   33.32   33.40</time>
   <energy>
    <i name="e_fr_energy">   -191.60447399 </i>
    <i name="e_wo_entrp">   -191.40447189 </i>
    <i name="e_0_energy">   -191.50447294 </i>
   </energy>
  </scstep>
  <scstep>
   <time name="dav">   30.61   30.69</time>
   <time name="total">   31.12   31.20</time>
   <energy>
    <i name="e_fr_energy">   -191.53470254 </i>
    <i name="e_wo_entrp">   -191.34608913 </i>
    <i name="e_0_energy">   -191.44039584 </i>
   </energy>
  </scstep>
  <scstep>
   <time name="dav">   28.56   28.63</time>
   <time name="total">   29.06   29.14</time>
   <energy>
    <i name="e_fr_energy">   -191.53827915 </i>
    <i name="e_wo_entrp">   -191.34741848 </i>
    <i name="e_0_energy">   -191.44284881 </i>
   </energy>
  </scstep>
  <scstep>
   <time name="dav">   28.44   28.51</time>
   <time name="total">   28.95   29.03</time>
   <energy>
    <i name="e_fr_energy">   -191.53284504 </i>
    <i name="e_wo_entrp">   -191.34302489 </i>
    <i name="e_0_energy">   -191.43793496 </i>
   </energy>
  </scstep>
  <scstep>
   <time name="dav">   28.19   28.26</time>
   <time name="total">   28.70   28.78</time>
   <energy>
    <i name="e_fr_energy">   -191.53368567 </i>
    <i name="e_wo_entrp">   -191.34372759 </i>
    <i name="e_0_energy">   -191.43870663 </i>
   </energy>
  </scstep>
  <scstep>
   <time name="dav">   27.91   27.98</time>
   <time name="total">   28.42   28.50</time>
   <energy>
    <i name="e_fr_energy">   -191.53295510 </i>
    <i name="e_wo_entrp">   -191.34308199 </i>
    <i name="e_0_energy">   -191.43801854 </i>
   </energy>
  </scstep>
  <scstep>
   <time name="dav">   26.29   26.35</time>
   <time name="total">   26.79   26.87</time>
   <energy>
    <i name="e_fr_energy">   -191.53239761 </i>
    <i name="e_wo_entrp">   -191.34265420 </i>
    <i name="e_0_energy">   -191.43752590 </i>
   </energy>
  </scstep>
  <scstep>
   <time name="dav">   18.41   18.45</time>
   <time name="total">   18.45   18.50</time>
   <energy>
    <i name="alphaZ">     90.14157050 </i>
    <i name="ewald">  44626.95766134 </i>
    <i name="hartreedc"> -50638.23637215 </i>
    <i name="XCdc">   -233.42528826 </i>
    <i name="pawpsdc">   4084.22320049 </i>
    <i name="pawaedc">  -3500.14632728 </i>
    <i name="eentropy">     -0.18974750 </i>
    <i name="bandstr">  -1382.29963364 </i>
    <i name="atom">   6761.44252427 </i>
    <i name="e_fr_energy">   -191.53241223 </i>
    <i name="e_wo_entrp">   -191.34266473 </i>
    <i name="e_0_energy">   -191.43753848 </i>
   </energy>
  </scstep>
  <structure>
   <crystal>
    <varray name="basis" >
     <v>       8.27126094       4.79159300       0.00000000 </v>
     <v>      -8.26609825       4.78265885       0.00000000 </v>
     <v>       0.00000000       0.00000000      30.00000000 </v>
    </varray>
    <i name="volume">   2374.99193480 </i>
    <varray name="rec_basis" >
     <v>       0.06041274       0.10441423       0.00000000 </v>
     <v>      -0.06052559       0.10447944       0.00000000 </v>
     <v>       0.00000000       0.00000000       0.03333333 </v>
    </varray>
   </crystal>
   <varray name="positions" >
    <v>       0.33356683       0.00465403      -0.00041209 </v>
    <v>       0.32963216       0.66382073       0.00002479 </v>
    <v>       0.67494186       0.00915463       0.00010078 </v>
    <v>       0.99626453       0.32528256       0.00005451 </v>
    <v>       0.68232789       0.34842541       0.00007003 </v>
    <v>       0.00389072       0.01287061      -0.00006139 </v>
    <v>      -0.01804814       0.65293673      -0.00008329 </v>
    <v>       0.31826374       0.32267437       0.00002436 </v>
    <v>       0.67908959       0.66165996       0.00013784 </v>
    <v>       0.11123197       0.22326849       0.94575426 </v>
    <v>       0.22530501       0.10818397       0.05255550 </v>
    <v>       0.11519295       0.55830655       0.94898813 </v>
    <v>       0.22470623       0.44904138       0.05171399 </v>
    <v>       0.11535696       0.88959695       0.94994792 </v>
    <v>       0.22525156       0.77960230       0.04868562 </v>
    <v>       0.44240396       0.21779762       0.94945739 </v>
    <v>       0.55370850       0.10659065       0.04934801 </v>
    <v>       0.44273462       0.55740314       0.95007506 </v>
    <v>       0.55390651       0.44363562       0.05199003 </v>
    <v>       0.44505592       0.88948419       0.95221422 </v>
    <v>       0.55450472       0.78016013       0.04818519 </v>
    <v>       0.77399044       0.21560379       0.94763207 </v>
    <v>       0.88142282       0.10756309       0.05309795 </v>
    <v>       0.77794513       0.55579353       0.94411796 </v>
    <v>       0.89103215       0.44499436       0.05431992 </v>
    <v>       0.77370459       0.89074903       0.94906828 </v>
    <v>       0.89083123       0.77896062       0.05299282 </v>
   </varray>
  </structure>
  <varray name="forces" >
   <v>      -0.01680878       0.02438142      -0.04628434 </v>
   <v>      -0.14650246      -0.02942018       0.00187883 </v>
   <v>      -0.09862017       0.12377177       0.01264428 </v>
   <v>       0.23563738      -0.00558327      -0.00537625 </v>
   <v>       0.02461304       0.40836388      -0.00236213 </v>
   <v>      -0.22791792       0.32518883       0.01250241 </v>
   <v>      -0.01265027      -0.38053766       0.02378434 </v>
   <v>      -0.30185762      -0.44162474      -0.03184689 </v>
   <v>       0.44854247       0.07534580       0.00621850 </v>
   <v>      -0.06848538      -0.05209011      -0.27269752 </v>
   <v>      -0.05926073      -0.02829724       0.10203047 </v>
   <v>      -0.04866338      -0.07707975       0.01128581 </v>
   <v>       0.01599479      -0.07604197       0.08547765 </v>
   <v>      -0.03565066      -0.12821180       0.18893339 </v>
   <v>      -0.07773907      -0.11736432      -0.06844921 </v>
   <v>      -0.03933805       0.11147625       0.17460796 </v>
   <v>      -0.07704830       0.14813741      -0.06706715 </v>
   <v>       0.10308871      -0.01357474       0.16485285 </v>
   <v>       0.00421372      -0.10407180      -0.13700516 </v>
   <v>      -0.00736630       0.02542859       0.03009721 </v>
   <v>       0.17108948       0.02406520      -0.18849609 </v>
   <v>      -0.04171225       0.05357401      -0.02065192 </v>
   <v>       0.00053536       0.02571141       0.10641209 </v>
   <v>       0.06001936      -0.00034258      -0.30238442 </v>
   <v>       0.12267342       0.00041929       0.13393681 </v>
   <v>       0.07402847       0.00371654       0.11101138 </v>
   <v>      -0.00081485       0.10465975      -0.02305290 </v>
  </varray>
  <varray name="stress" >
   <v>      -0.01669039      -0.02175762       0.10800104 </v>
   <v>      -0.02175756       0.12071903       0.05596583 </v>
   <v>       0.10800107       0.05596584      -1.34611263 </v>
  </varray>
  <energy>
   <i name="e_fr_energy">   -191.53241223 </i>
   <i name="e_wo_entrp">   -191.43753848 </i>
   <i name="e_0_energy">     -0.18974750 </i>
  </energy>
  <time name="totalsc">  288.77  289.53</time>
 </calculation>
 <calculation>
  <scstep>
   <time name="dav">   21.67   21.72</time>
   <time name="total">   22.18   22.23</time>
   <energy>
    <i name="alphaZ">     90.09053795 </i>
    <i name="ewald">  44607.96679994 </i>
    <i name="hartreedc"> -50618.19238709 </i>
    <i name="XCdc">   -233.45441909 </i>
    <i name="pawpsdc">   4084.09260857 </i>
    <i name="pawaedc">  -3500.01403906 </i>
    <i name="eentropy">     -0.18680591 </i>
    <i name="bandstr">  -1383.38321567 </i>
    <i name="atom">   6761.44252427 </i>
    <i name="e_fr_energy">   -191.63839610 </i>
    <i name="e_wo_entrp">   -191.45159018 </i>
    <i name="e_0_energy">   -191.54499314 </i>
   </energy>
  </scstep>
  <scstep>
   <time name="dav">   31.77   31.84</time>
   <time name="total">   32.27   32.36</time>
   <energy>
    <i name="e_fr_energy">   -191.77821796 </i>
    <i name="e_wo_entrp">   -191.56702497 </i>
    <i name="e_0_energy">   -191.67262146 </i>
   </energy>
  </scstep>
  <scstep>
   <time name="dav">   30.17   30.24</time>
   <time name="total">   30.67   30.75</time>
   <energy>
    <i name="e_fr_energy">   -191.65843793 </i>
    <i name="e_wo_entrp">   -191.46957559 </i>
    <i name="e_0_energy">   -191.56400676 </i>
   </energy>
  </scstep>
  <scstep>
   <time name="dav">   29.52   29.59</time>
   <time name="total">   30.03   30.11</time>
   <energy>
    <i name="e_fr_energy">   -191.66733014 </i>
    <i name="e_wo_entrp">   -191.47475908 </i>
    <i name="e_0_energy">   -191.57104461 </i>
   </energy>
  </scstep>
  <scstep>
   <time name="dav">   28.73   28.80</time>
   <time name="total">   29.23   29.31</time>
   <energy>
    <i name="e_fr_energy">   -191.65325046 </i>
    <i name="e_wo_entrp">   -191.46213807 </i>
    <i name="e_0_energy">   -191.55769427 </i>
   </energy>
  </scstep>
  <scstep>
   <time name="dav">   28.48   28.55</time>
   <time name="total">   28.99   29.07</time>
   <energy>
    <i name="e_fr_energy">   -191.65591297 </i>
    <i name="e_wo_entrp">   -191.46405791 </i>
    <i name="e_0_energy">   -191.55998544 </i>
   </energy>
  </scstep>
  <scstep>
   <time name="dav">   28.57   28.64</time>
   <time name="total">   29.07   29.15</time>
   <energy>
    <i name="e_fr_energy">   -191.65322703 </i>
    <i name="e_wo_entrp">   -191.46160082 </i>
    <i name="e_0_energy">   -191.55741392 </i>
   </energy>
  </scstep>
  <scstep>
   <time name="dav">   27.05   27.11</time>
   <time name="total">   27.56   27.63</time>
   <energy>
    <i name="e_fr_energy">   -191.65212025 </i>
    <i name="e_wo_entrp">   -191.46067458 </i>
    <i name="e_0_energy">   -191.55639741 </i>
   </energy>
  </scstep>
  <scstep>
   <time name="dav">   21.84   21.89</time>
   <time name="total">   21.88   21.95</time>
   <energy>
    <i name="alphaZ">     90.09053795 </i>
    <i name="ewald">  44607.96679994 </i>
    <i name="hartreedc"> -50619.88059726 </i>
    <i name="XCdc">   -233.36888528 </i>
    <i name="pawpsdc">   4089.17005200 </i>
    <i name="pawaedc">  -3505.16401873 </i>
    <i name="eentropy">     -0.19137665 </i>
    <i name="bandstr">  -1381.71715298 </i>
    <i name="atom">   6761.44252427 </i>
    <i name="e_fr_energy">   -191.65211674 </i>
    <i name="e_wo_entrp">   -191.46074008 </i>
[...]
      <set comment="kpoint 31">
       <r>  -17.4991    1.0000 </r>
       <r>  -17.2671    1.0000 </r>
       <r>  -16.9195    1.0000 </r>
       <r>  -16.6164    1.0000 </r>
       <r>  -16.5202    1.0000 </r>
       <r>  -16.4213    1.0000 </r>
       <r>  -16.3061    1.0000 </r>
       <r>  -16.2157    1.0000 </r>
       <r>  -16.0596    1.0000 </r>
       <r>  -16.0159    1.0000 </r>
       <r>  -15.9599    1.0000 </r>
       <r>  -15.9085    1.0000 </r>
       <r>  -15.7465    1.0000 </r>
       <r>  -15.6711    1.0000 </r>
       <r>  -15.6538    1.0000 </r>
       <r>  -15.5839    1.0000 </r>
       <r>  -15.4683    1.0000 </r>
       <r>  -15.2230    1.0000 </r>
       <r>   -9.7410    1.0000 </r>
       <r>   -9.4536    1.0000 </r>
       <r>   -9.2870    1.0000 </r>
       <r>   -8.9996    1.0000 </r>
       <r>   -8.8536    1.0000 </r>
       <r>   -8.7164    1.0000 </r>
       <r>   -8.5961    1.0000 </r>
       <r>   -8.5127    1.0000 </r>
       <r>   -8.4142    1.0000 </r>
       <r>   -8.3154    1.0000 </r>
       <r>   -8.2468    1.0000 </r>
       <r>   -8.1655    1.0000 </r>
       <r>   -8.0985    1.0000 </r>
       <r>   -8.0542    1.0000 </r>
       <r>   -8.0077    1.0000 </r>
       <r>   -7.9067    1.0000 </r>
       <r>   -7.7754    1.0000 </r>
       <r>   -7.7178    1.0000 </r>
       <r>   -7.6008    1.0000 </r>
       <r>   -7.4095    1.0000 </r>
       <r>   -7.3320    1.0000 </r>
       <r>   -7.2261    1.0000 </r>
       <r>   -7.1235    1.0000 </r>
       <r>   -7.0831    1.0000 </r>
       <r>   -7.0050    1.0000 </r>
       <r>   -6.9086    1.0000 </r>
       <r>   -6.8375    1.0000 </r>
       <r>   -6.7929    1.0000 </r>
       <r>   -6.7029    1.0000 </r>
       <r>   -6.6001    1.0000 </r>
       <r>   -6.5723    1.0000 </r>
       <r>   -6.4926    1.0000 </r>
       <r>   -6.4320    1.0000 </r>
       <r>   -6.3637    1.0000 </r>
       <r>   -6.2873    1.0000 </r>
       <r>   -6.1883    1.0000 </r>
       <r>   -6.1365    1.0000 </r>
       <r>   -6.0812    1.0000 </r>
       <r>   -6.0215    1.0000 </r>
       <r>   -5.9374    1.0000 </r>
       <r>   -5.8990    1.0000 </r>
       <r>   -5.8637    1.0000 </r>
       <r>   -5.7306    1.0000 </r>
       <r>   -5.6449    1.0000 </r>
       <r>   -5.5128    1.0000 </r>
       <r>   -5.3437    1.0000 </r>
       <r>   -5.2966    1.0000 </r>
       <r>   -5.1747    1.0000 </r>
       <r>   -5.1019    1.0000 </r>
       <r>   -4.8936    1.0000 </r>
       <r>   -4.8535    1.0000 </r>
       <r>   -4.7169    1.0000 </r>
       <r>   -4.6039    1.0000 </r>
       <r>   -4.4725    1.0000 </r>
       <r>   -4.3213    1.0000 </r>
       <r>   -4.2645    1.0000 </r>
       <r>   -4.0549    1.0000 </r>
       <r>   -4.0113    1.0000 </r>
       <r>   -3.8632    1.0000 </r>
       <r>   -3.6001    0.9796 </r>
       <r>   -3.5052    0.9153 </r>
       <r>   -3.4098    0.7578 </r>
       <r>   -2.9306    0.0036 </r>
       <r>   -2.8587    0.0007 </r>
       <r>   -2.7899    0.0001 </r>
       <r>   -2.6223    0.0000 </r>
       <r>   -2.5174    0.0000 </r>
       <r>   -2.4381    0.0000 </r>
       <r>   -2.3142    0.0000 </r>
       <r>   -2.1646    0.0000 </r>
       <r>   -2.0524    0.0000 </r>
       <r>   -1.8831    0.0000 </r>
       <r>   -1.8431    0.0000 </r>
       <r>   -1.6836    0.0000 </r>
       <r>   -1.5214    0.0000 </r>
       <r>   -1.3507    0.0000 </r>
       <r>   -1.2663    0.0000 </r>
       <r>   -1.1772    0.0000 </r>
       <r>   -1.1118    0.0000 </r>
       <r>   -1.0718    0.0000 </r>
       <r>   -0.9221    0.0000 </r>
       <r>   -0.8586    0.0000 </r>
       <r>   -0.7738    0.0000 </r>
       <r>   -0.7570    0.0000 </r>
       <r>   -0.6449    0.0000 </r>
       <r>   -0.4931    0.0000 </r>
       <r>   -0.4278    0.0000 </r>
       <r>   -0.3769    0.0000 </r>
       <r>   -0.3018    0.0000 </r>
       <r>   -0.1953    0.0000 </r>
       <r>   -0.0754    0.0000 </r>
       <r>    0.1759    0.0000 </r>
       <r>    0.3783    0.0000 </r>
       <r>    0.6008    0.0000 </r>
       <r>    0.7916    0.0000 </r>
       <r>    0.9801    0.0000 </r>
       <r>    1.1244    0.0000 </r>
       <r>    1.2155    0.0000 </r>
       <r>    1.3403    0.0000 </r>
       <r>    2.1258    0.0000 </r>
       <r>    2.2872    0.0000 </r>
       <r>    2.3791    0.0000 </r>
      </set>
      <set comment="kpoint 32">
       <r>  -17.5086    1.0000 </r>
       <r>  -17.2048    1.0000 </r>
       <r>  -17.0253    1.0000 </r>
       <r>  -16.6170    1.0000 </r>
       <r>  -16.4626    1.0000 </r>
       <r>  -16.3539    1.0000 </r>
       <r>  -16.2759    1.0000 </r>
       <r>  -16.2305    1.0000 </r>
       <r>  -16.1418    1.0000 </r>
       <r>  -16.0507    1.0000 </r>
       <r>  -15.9672    1.0000 </r>
       <r>  -15.9073    1.0000 </r>
       <r>  -15.7261    1.0000 </r>
       <r>  -15.6815    1.0000 </r>
       <r>  -15.6426    1.0000 </r>
       <r>  -15.5702    1.0000 </r>
       <r>  -15.4580    1.0000 </r>
       <r>  -15.2316    1.0000 </r>
       <r>   -9.6467    1.0000 </r>
       <r>   -9.5780    1.0000 </r>
       <r>   -9.3628    1.0000 </r>
       <r>   -8.9331    1.0000 </r>
       <r>   -8.7467    1.0000 </r>
       <r>   -8.6394    1.0000 </r>
       <r>   -8.6091    1.0000 </r>
       <r>   -8.4859    1.0000 </r>
       <r>   -8.4029    1.0000 </r>
       <r>   -8.3579    1.0000 </r>
       <r>   -8.2549    1.0000 </r>
       <r>   -8.1871    1.0000 </r>
       <r>   -8.1506    1.0000 </r>
       <r>   -8.0842    1.0000 </r>
       <r>   -8.0248    1.0000 </r>
       <r>   -7.9655    1.0000 </r>
       <r>   -7.8037    1.0000 </r>
       <r>   -7.6840    1.0000 </r>
       <r>   -7.5834    1.0000 </r>
       <r>   -7.4287    1.0000 </r>
       <r>   -7.3267    1.0000 </r>
       <r>   -7.2832    1.0000 </r>
       <r>   -7.1689    1.0000 </r>
       <r>   -7.0442    1.0000 </r>
       <r>   -6.9977    1.0000 </r>
       <r>   -6.9126    1.0000 </r>
       <r>   -6.8515    1.0000 </r>
       <r>   -6.7488    1.0000 </r>
       <r>   -6.6456    1.0000 </r>
       <r>   -6.6075    1.0000 </r>
       <r>   -6.5569    1.0000 </r>
       <r>   -6.4851    1.0000 </r>
       <r>   -6.4579    1.0000 </r>
       <r>   -6.3862    1.0000 </r>
       <r>   -6.3101    1.0000 </r>
       <r>   -6.2347    1.0000 </r>
       <r>   -6.1211    1.0000 </r>
       <r>   -6.0453    1.0000 </r>
       <r>   -5.9853    1.0000 </r>
       <r>   -5.9199    1.0000 </r>
       <r>   -5.8829    1.0000 </r>
       <r>   -5.7795    1.0000 </r>
       <r>   -5.6788    1.0000 </r>
       <r>   -5.5883    1.0000 </r>
       <r>   -5.5021    1.0000 </r>
       <r>   -5.3687    1.0000 </r>
       <r>   -5.3083    1.0000 </r>
       <r>   -5.2057    1.0000 </r>
       <r>   -5.0614    1.0000 </r>
       <r>   -4.9859    1.0000 </r>
       <r>   -4.8931    1.0000 </r>
       <r>   -4.6959    1.0000 </r>
       <r>   -4.6276    1.0000 </r>
       <r>   -4.5107    1.0000 </r>
       <r>   -4.3711    1.0000 </r>
       <r>   -4.2625    1.0000 </r>
       <r>   -4.0791    1.0000 </r>
       <r>   -4.0191    1.0000 </r>
       <r>   -3.8727    1.0000 </r>
       <r>   -3.6440    0.9908 </r>
       <r>   -3.4253    0.7908 </r>
       <r>   -3.3535    0.6184 </r>
       <r>   -2.9645    0.0072 </r>
       <r>   -2.8632    0.0008 </r>
       <r>   -2.7662    0.0001 </r>
       <r>   -2.6183    0.0000 </r>
       <r>   -2.4857    0.0000 </r>
       <r>   -2.4333    0.0000 </r>
       <r>   -2.3377    0.0000 </r>
       <r>   -2.1411    0.0000 </r>
       <r>   -2.0388    0.0000 </r>
       <r>   -1.9552    0.0000 </r>
       <r>   -1.8376    0.0000 </r>
       <r>   -1.7428    0.0000 </r>
       <r>   -1.4874    0.0000 </r>
       <r>   -1.3414    0.0000 </r>
       <r>   -1.2314    0.0000 </r>
       <r>   -1.1687    0.0000 </r>
       <r>   -1.1063    0.0000 </r>
       <r>   -1.0372    0.0000 </r>
       <r>   -0.9469    0.0000 </r>
       <r>   -0.8835    0.0000 </r>
       <r>   -0.7873    0.0000 </r>
       <r>   -0.7277    0.0000 </r>
       <r>   -0.6376    0.0000 </r>
       <r>   -0.5108    0.0000 </r>
       <r>   -0.4132    0.0000 </r>
       <r>   -0.3479    0.0000 </r>
       <r>   -0.2551    0.0000 </r>
       <r>   -0.1951    0.0000 </r>
       <r>   -0.0577    0.0000 </r>
       <r>    0.1250    0.0000 </r>
       <r>    0.3963    0.0000 </r>
       <r>    0.5468    0.0000 </r>
       <r>    0.7852    0.0000 </r>
       <r>    0.9181    0.0000 </r>
       <r>    1.0835    0.0000 </r>
       <r>    1.2474    0.0000 </r>
       <r>    1.3827    0.0000 </r>
       <r>    2.0966    0.0000 </r>
       <r>    2.2556    0.0000 </r>
       <r>    2.5615    0.0000 </r>
      </set>
      <set comment="kpoint 33">
       <r>  -17.4835    1.0000 </r>
       <r>  -17.2955    1.0000 </r>
       <r>  -16.9092    1.0000 </r>
       <r>  -16.6184    1.0000 </r>
       <r>  -16.5004    1.0000 </r>
       <r>  -16.4456    1.0000 </r>
       <r>  -16.2414    1.0000 </r>
       <r>  -16.2012    1.0000 </r>
       <r>  -16.1512    1.0000 </r>
       <r>  -16.0672    1.0000 </r>
       <r>  -15.9285    1.0000 </r>
       <r>  -15.8775    1.0000 </r>
       <r>  -15.7296    1.0000 </r>
       <r>  -15.6893    1.0000 </r>
       <r>  -15.6507    1.0000 </r>
       <r>  -15.5678    1.0000 </r>
       <r>  -15.4574    1.0000 </r>
       <r>  -15.2418    1.0000 </r>
       <r>   -9.7149    1.0000 </r>
       <r>   -9.4553    1.0000 </r>
       <r>   -9.3228    1.0000 </r>
       <r>   -8.9009    1.0000 </r>
       <r>   -8.8415    1.0000 </r>
       <r>   -8.7195    1.0000 </r>
       <r>   -8.6405    1.0000 </r>
       <r>   -8.6209    1.0000 </r>
       <r>   -8.3911    1.0000 </r>
       <r>   -8.2849    1.0000 </r>
       <r>   -8.2341    1.0000 </r>
       <r>   -8.1929    1.0000 </r>
       <r>   -8.0828    1.0000 </r>
       <r>   -8.0466    1.0000 </r>
       <r>   -8.0104    1.0000 </r>
       <r>   -7.9052    1.0000 </r>
       <r>   -7.8018    1.0000 </r>
       <r>   -7.7013    1.0000 </r>
       <r>   -7.5826    1.0000 </r>
       <r>   -7.5083    1.0000 </r>
       <r>   -7.3703    1.0000 </r>
       <r>   -7.2791    1.0000 </r>
       <r>   -7.1256    1.0000 </r>
       <r>   -7.0323    1.0000 </r>
       <r>   -6.9546    1.0000 </r>
       <r>   -6.9029    1.0000 </r>
       <r>   -6.8668    1.0000 </r>
       <r>   -6.7604    1.0000 </r>
       <r>   -6.6574    1.0000 </r>
       <r>   -6.6195    1.0000 </r>
       <r>   -6.5960    1.0000 </r>
       <r>   -6.5058    1.0000 </r>
       <r>   -6.4212    1.0000 </r>
       <r>   -6.3838    1.0000 </r>
       <r>   -6.2766    1.0000 </r>
       <r>   -6.1923    1.0000 </r>
       <r>   -6.0823    1.0000 </r>
       <r>   -6.0615    1.0000 </r>
       <r>   -5.9921    1.0000 </r>
       <r>   -5.9529    1.0000 </r>
       <r>   -5.8684    1.0000 </r>
       <r>   -5.7998    1.0000 </r>
       <r>   -5.6877    1.0000 </r>
       <r>   -5.6322    1.0000 </r>
       <r>   -5.5094    1.0000 </r>
       <r>   -5.3996    1.0000 </r>
       <r>   -5.2639    1.0000 </r>
       <r>   -5.1923    1.0000 </r>
       <r>   -5.1046    1.0000 </r>
       <r>   -4.9079    1.0000 </r>
       <r>   -4.7802    1.0000 </r>
       <r>   -4.7145    1.0000 </r>
       <r>   -4.6334    1.0000 </r>
       <r>   -4.5118    1.0000 </r>
       <r>   -4.4367    1.0000 </r>
       <r>   -4.2293    1.0000 </r>
       <r>   -4.1479    1.0000 </r>
       <r>   -4.0373    1.0000 </r>
       <r>   -3.9202    1.0000 </r>
       <r>   -3.6805    0.9955 </r>
       <r>   -3.4440    0.8268 </r>
       <r>   -3.2316    0.2876 </r>
       <r>   -2.9812    0.0099 </r>
       <r>   -2.8793    0.0011 </r>
       <r>   -2.7434    0.0000 </r>
       <r>   -2.6472    0.0000 </r>
       <r>   -2.4879    0.0000 </r>
       <r>   -2.4086    0.0000 </r>
       <r>   -2.3462    0.0000 </r>
       <r>   -2.1087    0.0000 </r>
       <r>   -2.0379    0.0000 </r>
       <r>   -1.9771    0.0000 </r>
       <r>   -1.8292    0.0000 </r>
       <r>   -1.7811    0.0000 </r>
       <r>   -1.4560    0.0000 </r>
       <r>   -1.3118    0.0000 </r>
       <r>   -1.2190    0.0000 </r>
       <r>   -1.1800    0.0000 </r>
       <r>   -1.0887    0.0000 </r>
       <r>   -1.0665    0.0000 </r>
       <r>   -0.9549    0.0000 </r>
       <r>   -0.8554    0.0000 </r>
       <r>   -0.7929    0.0000 </r>
       <r>   -0.7009    0.0000 </r>
       <r>   -0.6157    0.0000 </r>
       <r>   -0.5724    0.0000 </r>
       <r>   -0.4828    0.0000 </r>
       <r>   -0.3569    0.0000 </r>
       <r>   -0.2472    0.0000 </r>
       <r>   -0.1127    0.0000 </r>
       <r>   -0.0228    0.0000 </r>
       <r>    0.1143    0.0000 </r>
       <r>    0.4294    0.0000 </r>
       <r>    0.4532    0.0000 </r>
       <r>    0.7874    0.0000 </r>
       <r>    0.8758    0.0000 </r>
       <r>    1.0749    0.0000 </r>
       <r>    1.2530    0.0000 </r>
       <r>    1.4606    0.0000 </r>
       <r>    2.1278    0.0000 </r>
       <r>    2.2886    0.0000 </r>
       <r>    2.3871    0.0000 </r>
      </set>
      <set comment="kpoint 34">
       <r>  -17.4427    1.0000 </r>
       <r>  -17.3718    1.0000 </r>
       <r>  -16.7685    1.0000 </r>
       <r>  -16.6502    1.0000 </r>
       <r>  -16.6118    1.0000 </r>
       <r>  -16.4532    1.0000 </r>
       <r>  -16.2318    1.0000 </r>
       <r>  -16.1977    1.0000 </r>
       <r>  -16.1522    1.0000 </r>
       <r>  -16.0598    1.0000 </r>
       <r>  -15.8954    1.0000 </r>
       <r>  -15.8434    1.0000 </r>
       <r>  -15.7570    1.0000 </r>
       <r>  -15.6805    1.0000 </r>
       <r>  -15.6572    1.0000 </r>
       <r>  -15.5793    1.0000 </r>
       <r>  -15.4576    1.0000 </r>
       <r>  -15.2465    1.0000 </r>
       <r>   -9.7534    1.0000 </r>
       <r>   -9.3241    1.0000 </r>
       <r>   -9.2837    1.0000 </r>
       <r>   -8.9735    1.0000 </r>
       <r>   -8.8992    1.0000 </r>
       <r>   -8.7883    1.0000 </r>
       <r>   -8.6992    1.0000 </r>
       <r>   -8.6344    1.0000 </r>
       <r>   -8.3790    1.0000 </r>
       <r>   -8.2416    1.0000 </r>
       <r>   -8.2352    1.0000 </r>
       <r>   -8.1897    1.0000 </r>
       <r>   -8.0497    1.0000 </r>
       <r>   -8.0459    1.0000 </r>
       <r>   -7.9205    1.0000 </r>
       <r>   -7.9011    1.0000 </r>
       <r>   -7.7539    1.0000 </r>
       <r>   -7.7393    1.0000 </r>
       <r>   -7.5996    1.0000 </r>
       <r>   -7.5072    1.0000 </r>
       <r>   -7.3834    1.0000 </r>
       <r>   -7.3469    1.0000 </r>
       <r>   -7.0795    1.0000 </r>
       <r>   -7.0306    1.0000 </r>
       <r>   -6.9505    1.0000 </r>
       <r>   -6.8744    1.0000 </r>
       <r>   -6.8532    1.0000 </r>
       <r>   -6.7534    1.0000 </r>
       <r>   -6.6823    1.0000 </r>
       <r>   -6.6286    1.0000 </r>
       <r>   -6.5968    1.0000 </r>
       <r>   -6.5338    1.0000 </r>
       <r>   -6.4248    1.0000 </r>
       <r>   -6.3453    1.0000 </r>
       <r>   -6.3140    1.0000 </r>
       <r>   -6.1388    1.0000 </r>
       <r>   -6.0999    1.0000 </r>
       <r>   -6.0496    1.0000 </r>
       <r>   -5.9782    1.0000 </r>
       <r>   -5.9608    1.0000 </r>
       <r>   -5.8702    1.0000 </r>
       <r>   -5.8278    1.0000 </r>
       <r>   -5.7398    1.0000 </r>
       <r>   -5.6516    1.0000 </r>
       <r>   -5.5411    1.0000 </r>
       <r>   -5.3827    1.0000 </r>
       <r>   -5.3198    1.0000 </r>
       <r>   -5.1663    1.0000 </r>
       <r>   -5.0158    1.0000 </r>
       <r>   -4.8834    1.0000 </r>
       <r>   -4.7655    1.0000 </r>
       <r>   -4.7061    1.0000 </r>
       <r>   -4.5498    1.0000 </r>
       <r>   -4.5134    1.0000 </r>
       <r>   -4.4880    1.0000 </r>
       <r>   -4.2411    1.0000 </r>
       <r>   -4.1736    1.0000 </r>
       <r>   -4.0544    1.0000 </r>
       <r>   -3.9526    1.0000 </r>
       <r>   -3.6932    0.9966 </r>
       <r>   -3.4554    0.8466 </r>
       <r>   -3.1828    0.1826 </r>
       <r>   -2.9815    0.0099 </r>
       <r>   -2.8936    0.0016 </r>
       <r>   -2.7295    0.0000 </r>
       <r>   -2.6702    0.0000 </r>
       <r>   -2.4987    0.0000 </r>
       <r>   -2.3921    0.0000 </r>
       <r>   -2.3471    0.0000 </r>
       <r>   -2.0927    0.0000 </r>
       <r>   -2.0493    0.0000 </r>
       <r>   -1.9654    0.0000 </r>
       <r>   -1.8223    0.0000 </r>
       <r>   -1.7934    0.0000 </r>
       <r>   -1.4457    0.0000 </r>
       <r>   -1.2849    0.0000 </r>
       <r>   -1.2331    0.0000 </r>
       <r>   -1.1820    0.0000 </r>
       <r>   -1.0928    0.0000 </r>
       <r>   -1.0785    0.0000 </r>
       <r>   -0.9361    0.0000 </r>
       <r>   -0.8431    0.0000 </r>
       <r>   -0.7869    0.0000 </r>
       <r>   -0.6963    0.0000 </r>
       <r>   -0.6339    0.0000 </r>
       <r>   -0.5842    0.0000 </r>
       <r>   -0.5339    0.0000 </r>
       <r>   -0.3775    0.0000 </r>
       <r>   -0.2217    0.0000 </r>
       <r>   -0.0916    0.0000 </r>
       <r>    0.0110    0.0000 </r>
       <r>    0.1217    0.0000 </r>
       <r>    0.3631    0.0000 </r>
       <r>    0.4807    0.0000 </r>
       <r>    0.7919    0.0000 </r>
       <r>    0.8623    0.0000 </r>
       <r>    1.0787    0.0000 </r>
       <r>    1.2504    0.0000 </r>
       <r>    1.5001    0.0000 </r>
       <r>    2.2036    0.0000 </r>
       <r>    2.2464    0.0000 </r>
       <r>    2.3791    0.0000 </r>
      </set>
     </set>
    </set>
   </array>
  </eigenvalues>
  <separator name="orbital magnetization" >
   <v name="MAGDIPOLOUT">      0.00000000      0.00000000      0.00000000</v>
  </separator>
 </calculation>
 <structure name="finalpos" >
  <crystal>
   <varray name="basis" >
    <v>       8.36774652       4.86529654       0.00000000 </v>
    <v>      -8.34127320       4.81969116       0.00000000 </v>
    <v>       0.00000000       0.00000000      30.00000000 </v>
   </varray>
   <i name="volume">   2427.38164510 </i>
   <varray name="rec_basis" >
    <v>       0.05956654       0.10308976       0.00000000 </v>
    <v>      -0.06013018       0.10341695       0.00000000 </v>
    <v>       0.00000000       0.00000000       0.03333333 </v>
   </varray>
  </crystal>
  <varray name="positions" >
   <v>       0.35003387       0.00886615      -0.00302900 </v>
   <v>       0.30110676       0.64949981       0.00198793 </v>
   <v>       0.68288279       0.02903852       0.00053691 </v>
   <v>       0.99789921       0.32607715       0.00009592 </v>
   <v>       0.69782938       0.34943786      -0.00073574 </v>
   <v>      -0.00461844       0.02108320       0.00038267 </v>
   <v>      -0.01687870       0.63764986       0.00021597 </v>
   <v>       0.29258426       0.31641068       0.00154951 </v>
   <v>       0.70343322       0.66847973      -0.00175831 </v>
   <v>       0.10477374       0.22114670       0.94386046 </v>
   <v>       0.21953072       0.10604451       0.05187588 </v>
   <v>       0.11395615       0.55493438       0.94681484 </v>
   <v>       0.21696208       0.44515806       0.05491388 </v>
   <v>       0.11203236       0.88762459       0.95585166 </v>
   <v>       0.22342389       0.77953633       0.04918549 </v>
   <v>       0.44413925       0.22840843       0.95318905 </v>
   <v>       0.55605125       0.11256142       0.04962621 </v>
   <v>       0.44399447       0.55619412       0.95570064 </v>
   <v>       0.54959241       0.44147377       0.04541220 </v>
   <v>       0.44559246       0.88696981       0.95394688 </v>
   <v>       0.55595290       0.77725150       0.04035526 </v>
   <v>       0.77660875       0.21836611       0.94547898 </v>
   <v>       0.87899067       0.10897283       0.05470794 </v>
   <v>       0.78726476       0.55465152       0.94186899 </v>
   <v>       0.89215305       0.44027939       0.05642793 </v>
   <v>       0.77359856       0.89201808       0.94928581 </v>
   <v>       0.89932463       0.78007996       0.05225195 </v>
  </varray>
 </structure>
</modeling>
