unknown system                          
           1
     8.854736    5.107539    0.000000
    -8.853265    5.105008    0.000000
     0.000000    0.000000   30.000000
   V    Mo   W    S 
   3   3   3  18
Direct configuration=     1
   0.33333334  0.00000000  0.00000000
   0.33333334  0.66666669  0.00000000
   0.66666669  0.00000000  0.00000000
   1.00000000  0.33333334  0.00000000
   0.66666669  0.33333334  0.00000000
   0.00000000  0.00000000  0.00000000
   0.00000000  0.66666669  0.00000000
   0.33333334  0.33333334  0.00000000
   0.66666669  0.66666669  0.00000000
   0.11068511  0.22244981  0.95539999
   0.22244981  0.11068511  0.04460000
   0.11068511  0.55578315  0.95539999
   0.22244981  0.44401845  0.04460000
   0.11068511  0.88911647  0.95539999
   0.22244981  0.77735180  0.04460000
   0.44401845  0.22244981  0.95539999
   0.55578315  0.11068511  0.04460000
   0.44401845  0.55578315  0.95539999
   0.55578315  0.44401845  0.04460000
   0.44401845  0.88911647  0.95539999
   0.55578315  0.77735180  0.04460000
   0.77735180  0.22244981  0.95539999
   0.88911647  0.11068511  0.04460000
   0.77735180  0.55578315  0.95539999
   0.88911647  0.44401845  0.04460000
   0.77735180  0.88911647  0.95539999
   0.88911647  0.77735180  0.04460000
unknown system                          
           1
     8.666750    5.001398    0.000000
    -8.665193    4.998717    0.000000
     0.000000    0.000000   30.000000
   V    Mo   W    S 
   3   3   3  18
Direct configuration=     2
   0.33390680  0.00064758 -0.00007774
   0.33274148  0.66651487 -0.00004788
   0.66795729  0.00188332 -0.00002043
   0.99844910  0.33175677  0.00019073
   0.66809066  0.33319001 -0.00010719
  -0.00012338  0.00134590  0.00015256
  -0.00089969  0.66540856 -0.00021926
   0.33164235  0.33165096  0.00023452
   0.66787894  0.66707393 -0.00010554
   0.11201999  0.22266443  0.95076134
   0.22503189  0.10970568  0.04805364
   0.11499519  0.55821714  0.95196585
   0.22476516  0.44826602  0.04806835
   0.11496991  0.88992892  0.95201778
   0.22569231  0.77924614  0.04687259
   0.44185687  0.21815286  0.95194536
   0.55347287  0.10656148  0.04687836
   0.44252142  0.55756420  0.95201603
   0.55485324  0.44471114  0.04916809
   0.44414051  0.88891998  0.95417378
   0.55369564  0.77940967  0.04692065
   0.77538904  0.21766358  0.95190554
   0.88443073  0.10888707  0.04811417
   0.77816349  0.55632138  0.95060144
   0.88939688  0.44525026  0.04925299
   0.77471558  0.89014610  0.95201425
   0.88846020  0.77712647  0.04926991
unknown system                          
           1
     8.484326    4.900444    0.000000
    -8.483660    4.899305    0.000000
     0.000000    0.000000   30.000000
   V    Mo   W    S 
   3   3   3  18
Direct configuration=     3
   0.33400057  0.00093285 -0.00012540
   0.33254749  0.66638438 -0.00004926
   0.66845621  0.00247773 -0.00001441
   0.99804515  0.33124192  0.00020775
   0.66890494  0.33382880 -0.00008802
  -0.00000777  0.00194751  0.00012954
  -0.00182966  0.66472025 -0.00025299
   0.33094405  0.33102827  0.00025556
   0.66859018  0.66697170 -0.00007875
   0.11225335  0.22280787  0.95070991
   0.22519167  0.10988886  0.04811646
   0.11495458  0.55839138  0.95199346
   0.22493806  0.44822787  0.04806274
   0.11495712  0.88976349  0.95209517
   0.22554361  0.77921307  0.04678188
   0.44168630  0.21817418  0.95198194
   0.55340368  0.10644194  0.04683608
   0.44262889  0.55747162  0.95209776
   0.55475219  0.44482066  0.04911123
   0.44416558  0.88893138  0.95428439
   0.55379304  0.77934571  0.04678347
   0.77528122  0.21748589  0.95182003
   0.88424832  0.10879155  0.04822501
   0.77828275  0.55655665  0.95049922
   0.88954911  0.44549736  0.04933062
   0.77453894  0.88995932  0.95202440
   0.88839488  0.77691226  0.04926209
unknown system                          
           1
     8.272442    4.784779    0.000000
    -8.268355    4.777716    0.000000
     0.000000    0.000000   30.000000
   V    Mo   W    S 
   3   3   3  18
Direct configuration=     4
   0.33395221  0.00220947 -0.00026319
   0.33166223  0.66533731 -0.00003001
   0.67069784  0.00468165  0.00002027
   0.99692464  0.32942172  0.00018450
   0.67252913  0.33750066  0.00000180
   0.00070031  0.00451971  0.00000183
  -0.00643566  0.66156695 -0.00027510
   0.32813005  0.32879828  0.00021961
   0.67153721  0.66587003  0.00005673
   0.11232986  0.22306118  0.94889895
   0.22570193  0.10921656  0.04986821
   0.11588332  0.55882132  0.95065823
   0.22544594  0.44924261  0.04950964
   0.11597285  0.89026252  0.95097648
   0.22639822  0.77981266  0.04773142
   0.44122038  0.21728472  0.95071290
   0.55282042  0.10533375  0.04796405
   0.44234140  0.55777028  0.95099425
   0.55466646  0.44482598  0.05046710
   0.44435048  0.88896954  0.95349920
   0.55342860  0.77990223  0.04755351
   0.77455845  0.21609259  0.95006311
   0.88269461  0.10802576  0.05012634
   0.77827405  0.55661754  0.94835124
   0.88986169  0.44566668  0.05124770
   0.77386955  0.89042247  0.95062297
   0.88869827  0.77698030  0.05083815
unknown system                          
           1
     8.271261    4.791593    0.000000
    -8.266098    4.782659    0.000000
     0.000000    0.000000   30.000000
   V    Mo   W    S 
   3   3   3  18
Direct configuration=     5
   0.33359372  0.00440274 -0.00036130
   0.33010552  0.66369937  0.00005465
   0.67446870  0.00833656  0.00010920
   0.99563343  0.32594739  0.00004922
   0.68046485  0.34629462  0.00010173
   0.00287931  0.01063654 -0.00013260
  -0.01626330  0.65465106 -0.00016128
   0.32128410  0.32404800  0.00006772
   0.67760862  0.66282286  0.00023116
   0.11177851  0.22327324  0.94625444
   0.22576357  0.10818763  0.05234123
   0.11609513  0.55864153  0.94895953
   0.22523500  0.44978297  0.05156613
   0.11641305  0.89037475  0.94969079
   0.22650902  0.78015438  0.04881626
   0.44162502  0.21689046  0.94922588
   0.55290434  0.10520985  0.04941922
   0.44233614  0.55781744  0.94981375
   0.55436109  0.44428843  0.05211618
   0.44488480  0.88925298  0.95222360
   0.55361249  0.78056790  0.04840319
   0.77387907  0.21499713  0.94771165
   0.88111844  0.10738023  0.05286638
   0.77803965  0.55606589  0.94481816
   0.89053836  0.44541484  0.05399140
   0.77338836  0.89098339  0.94892471
   0.88995746  0.77809227  0.05289892
unknown system                          
           1
     8.270715    4.793553    0.000000
    -8.266480    4.786217    0.000000
     0.000000    0.000000   30.000000
   V    Mo   W    S 
   3   3   3  18
Direct configuration=     6
   0.33356683  0.00465403 -0.00041209
   0.32963216  0.66382073  0.00002479
   0.67494186  0.00915463  0.00010078
   0.99626453  0.32528256  0.00005451
   0.68232789  0.34842541  0.00007003
   0.00389072  0.01287061 -0.00006139
  -0.01804814  0.65293673 -0.00008329
   0.31826374  0.32267437  0.00002436
   0.67908959  0.66165996  0.00013784
   0.11123197  0.22326849  0.94575426
   0.22530501  0.10818397  0.05255550
   0.11519295  0.55830655  0.94898813
   0.22470623  0.44904138  0.05171399
   0.11535696  0.88959695  0.94994792
   0.22525156  0.77960230  0.04868562
   0.44240396  0.21779762  0.94945739
   0.55370850  0.10659065  0.04934801
   0.44273462  0.55740314  0.95007506
   0.55390651  0.44363562  0.05199003
   0.44505592  0.88948419  0.95221422
   0.55450472  0.78016013  0.04818519
   0.77399044  0.21560379  0.94763207
   0.88142282  0.10756309  0.05309795
   0.77794513  0.55579353  0.94411796
   0.89103215  0.44499436  0.05431992
   0.77370459  0.89074903  0.94906828
   0.89083123  0.77896062  0.05299282
unknown system                          
           1
     8.281014    4.804847    0.000000
    -8.275561    4.795401    0.000000
     0.000000    0.000000   30.000000
   V    Mo   W    S 
   3   3   3  18
Direct configuration=     7
   0.33369040  0.00492658 -0.00053400
   0.32869371  0.66428798  0.00002963
   0.67547669  0.01063711  0.00013399
   0.99735139  0.32412052  0.00004081
   0.68579217  0.35164950  0.00006353
   0.00548044  0.01662995 -0.00002810
  -0.02121622  0.64987558 -0.00002124
   0.31319406  0.32048624 -0.00005910
   0.68183548  0.66014742  0.00015418
   0.11047666  0.22316459  0.94504721
   0.22478783  0.10823955  0.05281280
   0.11432275  0.55790307  0.94902635
   0.22415566  0.44833380  0.05192968
   0.11412482  0.88870674  0.95045382
   0.22390970  0.77900270  0.04849925
   0.44313416  0.21891010  0.94992635
   0.55456345  0.10818501  0.04916339
   0.44311531  0.55679597  0.95051670
   0.55306655  0.44275728  0.05161925
   0.44522835  0.88972831  0.95230037
   0.55552076  0.77953575  0.04768217
   0.77423751  0.21625138  0.94758909
   0.88164460  0.10777624  0.05336568
   0.77823254  0.55550624  0.94333721
   0.89161917  0.44441158  0.05465982
   0.77409132  0.89042177  0.94937014
   0.89168520  0.77982348  0.05292092
unknown system                          
           1
     8.286569    4.814583    0.000000
    -8.279806    4.802866    0.000000
     0.000000    0.000000   30.000000
   V    Mo   W    S 
   3   3   3  18
Direct configuration=     8
   0.33382676  0.00503177 -0.00062390
   0.32780849  0.66463132  0.00003885
   0.67568970  0.01169806  0.00016632
   0.99808836  0.32350317  0.00002794
   0.68770966  0.35302340  0.00004663
   0.00623992  0.01872408 -0.00000612
  -0.02247235  0.64827666  0.00002754
   0.31024142  0.31938261 -0.00008150
   0.68341867  0.65945015  0.00011443
   0.10992951  0.22306214  0.94454646
   0.22449813  0.10825127  0.05295151
   0.11400140  0.55773082  0.94901548
   0.22391924  0.44806285  0.05208637
   0.11345457  0.88824203  0.95079286
   0.22327236  0.77870889  0.04841558
   0.44346585  0.21958085  0.95025036
   0.55498284  0.10898988  0.04906931
   0.44325851  0.55646463  0.95082582
   0.55241235  0.44209986  0.05134167
   0.44529124  0.88984881  0.95235700
   0.55606193  0.77914736  0.04732168
   0.77437992  0.21653022  0.94753862
   0.88170580  0.10784889  0.05353207
   0.77842057  0.55529859  0.94289391
   0.89204816  0.44403559  0.05489527
   0.77423269  0.89022413  0.94957109
   0.89232873  0.78036642  0.05288463
unknown system                          
           1
     8.292452    4.817261    0.000000
    -8.285325    4.804919    0.000000
     0.000000    0.000000   30.000000
   V    Mo   W    S 
   3   3   3  18
Direct configuration=     9
   0.33416380  0.00503010 -0.00079228
   0.32581659  0.66501518  0.00007451
   0.67585770  0.01349914  0.00024717
   0.99911512  0.32293454  0.00001213
   0.69008369  0.35401232  0.00002820
   0.00678460  0.02109284  0.00001844
  -0.02328904  0.64638947  0.00008252
   0.30662271  0.31839289 -0.00008403
   0.68561668  0.65894386  0.00006003
   0.10918096  0.22288260  0.94397040
   0.22406832  0.10831996  0.05299319
   0.11388698  0.55755847  0.94901020
   0.22363875  0.44784239  0.05223626
   0.11263422  0.88771477  0.95136677
   0.22268778  0.77839782  0.04832151
   0.44375327  0.22054463  0.95080973
   0.55541394  0.10982780  0.04893366
   0.44338006  0.55607940  0.95139367
   0.55147000  0.44118280  0.05075059
   0.44531900  0.88994492  0.95249176
   0.55664927  0.77854950  0.04663953
   0.77467088  0.21676952  0.94750685
   0.88174616  0.10795296  0.05364532
   0.77888829  0.55500728  0.94255301
   0.89263248  0.44352454  0.05510070
   0.77428868  0.88992165  0.94993571
   0.89313356  0.78088309  0.05269434
unknown system                          
           1
     8.298316    4.822343    0.000000
    -8.290360    4.808570    0.000000
     0.000000    0.000000   30.000000
   V    Mo   W    S 
   3   3   3  18
Direct configuration=    10
   0.33419309  0.00504182 -0.00079428
   0.32565051  0.66494416  0.00008239
   0.67581999  0.01352364  0.00025208
   0.99898640  0.32305319  0.00001274
   0.68980996  0.35361666  0.00002300
   0.00659560  0.02073664  0.00001193
  -0.02289122  0.64662618  0.00007758
   0.30704252  0.31855891 -0.00007582
   0.68547004  0.65913186  0.00004818
   0.10922156  0.22286842  0.94401889
   0.22409539  0.10829338  0.05297000
   0.11397889  0.55757263  0.94896326
   0.22366402  0.44792752  0.05224723
   0.11274290  0.88779557  0.95133480
   0.22282631  0.77850409  0.04837373
   0.44370779  0.22047491  0.95077664
   0.55531282  0.10968014  0.04897291
   0.44336527  0.55614982  0.95136896
   0.55150536  0.44120822  0.05076494
   0.44530965  0.88994534  0.95247513
   0.55657069  0.77859871  0.04665165
   0.77466687  0.21669974  0.94748112
   0.88170331  0.10793624  0.05363830
   0.77891601  0.55499804  0.94261088
   0.89259859  0.44354754  0.05509418
   0.77422675  0.88995288  0.94990409
   0.89312540  0.78082821  0.05271538
unknown system                          
           1
     8.302050    4.825137    0.000000
    -8.293640    4.810581    0.000000
     0.000000    0.000000   30.000000
   V    Mo   W    S 
   3   3   3  18
Direct configuration=    11
   0.33452438  0.00509699 -0.00091172
   0.32384195  0.66498252  0.00012977
   0.67588903  0.01483527  0.00031666
   0.99939630  0.32291520  0.00001079
   0.69102236  0.35371960  0.00000989
   0.00661800  0.02169253  0.00001758
  -0.02291799  0.64564290  0.00010033
   0.30528517  0.31810924 -0.00006693
   0.68685422  0.65912451  0.00000933
   0.10886774  0.22273276  0.94380309
   0.22384155  0.10830128  0.05292278
   0.11403051  0.55745125  0.94886824
   0.22349428  0.44787337  0.05233533
   0.11240344  0.88758701  0.95166616
   0.22270211  0.77852628  0.04841208
   0.44383440  0.22098627  0.95108691
   0.55540179  0.10995061  0.04895757
   0.44345442  0.55604957  0.95171895
   0.55104915  0.44070938  0.05037745
   0.44530714  0.89003101  0.95254701
   0.55681398  0.77829630  0.04619434
   0.77487751  0.21674259  0.94741733
   0.88168267  0.10799691  0.05367188
   0.77932615  0.55479862  0.94253260
   0.89287377  0.44326451  0.05518198
   0.77414688  0.88981577  0.95009053
   0.89359354  0.78098218  0.05259999
unknown system                          
           1
     8.311991    4.832471    0.000000
    -8.301903    4.815024    0.000000
     0.000000    0.000000   30.000000
   V    Mo   W    S 
   3   3   3  18
Direct configuration=    12
   0.33465394  0.00512659 -0.00095621
   0.32315153  0.66494533  0.00014843
   0.67593296  0.01531322  0.00033992
   0.99950480  0.32288483  0.00000813
   0.69138081  0.35368002  0.00000297
   0.00656613  0.02195048  0.00001783
  -0.02283199  0.64535015  0.00010888
   0.30477314  0.31800373 -0.00006036
   0.68730950  0.65915651 -0.00000765
   0.10873741  0.22268369  0.94372512
   0.22375284  0.10828991  0.05291519
   0.11404742  0.55740760  0.94881964
   0.22343528  0.44786444  0.05237428
   0.11228863  0.88751456  0.95177117
   0.22266383  0.77854323  0.04843998
   0.44389234  0.22117134  0.95117967
   0.55543317  0.11004078  0.04896565
   0.44349316  0.55603543  0.95183837
   0.55090411  0.44054209  0.05025136
   0.44530893  0.89005465  0.95256850
   0.55688536  0.77819317  0.04603340
   0.77494818  0.21675724  0.94738305
   0.88166244  0.10801297  0.05369185
   0.77946941  0.55472150  0.94249379
   0.89296829  0.44316243  0.05522637
   0.77410577  0.88977440  0.95014372
   0.89377702  0.78103417  0.05257685
unknown system                          
           1
     8.326510    4.843314    0.000000
    -8.313762    4.821281    0.000000
     0.000000    0.000000   30.000000
   V    Mo   W    S 
   3   3   3  18
Direct configuration=    13
   0.33521655  0.00530509 -0.00113399
   0.32040952  0.66471007  0.00022939
   0.67618789  0.01724648  0.00043169
   0.99973783  0.32271905  0.00000235
   0.69270488  0.35347014 -0.00002093
   0.00623518  0.02277405  0.00001959
  -0.02251116  0.64425959  0.00013503
   0.30294653  0.31760754 -0.00002806
   0.68911217  0.65935509 -0.00006920
   0.10829578  0.22249352  0.94350650
   0.22338961  0.10826277  0.05284285
   0.11412221  0.55724331  0.94861884
   0.22319710  0.44780334  0.05250086
   0.11188175  0.88726777  0.95218421
   0.22256664  0.77864615  0.04856076
   0.44410353  0.22187821  0.95152824
   0.55554928  0.11032075  0.04900000
   0.44365976  0.55602299  0.95231647
   0.55043087  0.43996647  0.04974269
   0.44531861  0.89016305  0.95267075
   0.55713851  0.77783407  0.04538103
   0.77521508  0.21677553  0.94725612
   0.88158523  0.10807827  0.05373673
   0.78007685  0.55444032  0.94240974
   0.89327899  0.44279413  0.05535876
   0.77390971  0.88963951  0.95035053
   0.89445557  0.78113718  0.05246897
unknown system                          
           1
     8.344891    4.854961    0.000000
    -8.327319    4.824631    0.000000
     0.000000    0.000000   30.000000
   V    Mo   W    S 
   3   3   3  18
Direct configuration=    14
   0.33641670  0.00570988 -0.00146822
   0.31491416  0.66368114  0.00040636
   0.67671039  0.02080808  0.00060094
   1.00013434  0.32288279 -0.00001594
   0.69483600  0.35272432 -0.00006504
   0.00531720  0.02380864  0.00001542
  -0.02142685  0.64237121  0.00017544
   0.30007233  0.31720512  0.00005468
   0.69234252  0.66000163 -0.00019547
   0.10756749  0.22217221  0.94320125
   0.22276380  0.10810793  0.05268807
   0.11426577  0.55692596  0.94819847
   0.22276390  0.44776271  0.05271375
   0.11128709  0.88690732  0.95289395
   0.22251620  0.77896042  0.04883160
   0.44448171  0.22312091  0.95206575
   0.55561015  0.11071558  0.04915288
   0.44396683  0.55619288  0.95318407
   0.54974263  0.43903587  0.04885825
   0.44527348  0.89024919  0.95287476
   0.55733874  0.77716172  0.04416819
   0.77573523  0.21685867  0.94694307
   0.88138982  0.10816304  0.05385257
   0.78123075  0.55394035  0.94229032
   0.89376753  0.44213056  0.05560510
   0.77348854  0.88944192  0.95062669
   0.89570796  0.78117439  0.05234298
unknown system                          
           1
     8.338751    4.849967    0.000000
    -8.320948    4.819248    0.000000
     0.000000    0.000000   30.000000
   V    Mo   W    S 
   3   3   3  18
Direct configuration=    15
   0.33819081  0.00655717 -0.00189536
   0.30897806  0.66167335  0.00065809
   0.67758693  0.02481730  0.00078694
   1.00002600  0.32325334 -0.00003957
   0.69680088  0.35147313 -0.00016329
   0.00373703  0.02434910  0.00001637
  -0.01988329  0.64037463  0.00020708
   0.29750219  0.31701761  0.00019132
   0.69584486  0.66108264 -0.00034273
   0.10674228  0.22178147  0.94297283
   0.22201925  0.10787399  0.05245005
   0.11426346  0.55650813  0.94757416
   0.22218341  0.44783936  0.05302861
   0.11073438  0.88658577  0.95371913
   0.22244371  0.77942736  0.04921568
   0.44491948  0.22456787  0.95259000
   0.55563384  0.11111372  0.04941670
   0.44427361  0.55657593  0.95417627
   0.54914560  0.43818698  0.04782130
   0.44517847  0.89018638  0.95318495
   0.55721156  0.77654924  0.04270079
   0.77632591  0.21698743  0.94652497
   0.88111027  0.10830137  0.05397769
   0.78276768  0.55334609  0.94221971
   0.89423890  0.44135510  0.05592206
   0.77295236  0.88939368  0.95083455
   0.89728680  0.78103630  0.05225161
unknown system                          
           1
     8.357205    4.862761    0.000000
    -8.335147    4.824716    0.000000
     0.000000    0.000000   30.000000
   V    Mo   W    S 
   3   3   3  18
Direct configuration=    16
   0.33925737  0.00724898 -0.00190913
   0.31000480  0.66018399  0.00079963
   0.67812393  0.02432410  0.00074676
   0.99934603  0.32382696 -0.00009067
   0.69615372  0.35101651 -0.00015514
   0.00278737  0.02344752  0.00001333
  -0.01955939  0.64033246  0.00019425
   0.29803497  0.31748040  0.00031269
   0.69572966  0.66155351 -0.00044533
   0.10673320  0.22178186  0.94322817
   0.22190814  0.10778081  0.05232718
   0.11386743  0.55636921  0.94746995
   0.22187626  0.44779558  0.05310181
   0.11097204  0.88675639  0.95383351
   0.22239756  0.77946454  0.04917784
   0.44495611  0.22487409  0.95241299
   0.55553061  0.11110602  0.04953817
   0.44418673  0.55678288  0.95415340
   0.54943368  0.43859497  0.04770340
   0.44511061  0.88994958  0.95335068
   0.55664145  0.77697225  0.04258933
   0.77631287  0.21710096  0.94641805
   0.88092265  0.10833325  0.05402318
   0.78311667  0.55343480  0.94234061
   0.89391616  0.44125498  0.05591552
   0.77292867  0.88967886  0.95063776
   0.89752513  0.78076900  0.05231196
unknown system                          
           1
     8.355185    4.860552    0.000000
    -8.332558    4.821535    0.000000
     0.000000    0.000000   30.000000
   V    Mo   W    S 
   3   3   3  18
Direct configuration=    17
   0.34128524  0.00817265 -0.00226096
   0.30437919  0.65811854  0.00104713
   0.67909159  0.02799918  0.00089171
   0.99935004  0.32430531 -0.00011806
   0.69790071  0.34979053 -0.00024976
   0.00122815  0.02392648  0.00004113
  -0.01819115  0.63841451  0.00023602
   0.29545027  0.31721825  0.00044231
   0.69920077  0.66278112 -0.00059843
   0.10599957  0.22146660  0.94303234
   0.22120500  0.10756992  0.05211919
   0.11397174  0.55603681  0.94693998
   0.22123761  0.44776224  0.05342518
   0.11050266  0.88645996  0.95460067
   0.22241903  0.77979791  0.04944888
   0.44530520  0.22629317  0.95284396
   0.55556252  0.11143596  0.04978089
   0.44448019  0.55711027  0.95500367
   0.54884129  0.43788706  0.04678503
   0.44506581  0.88986698  0.95363100
   0.55656130  0.77643259  0.04130288
   0.77676056  0.21718852  0.94603627
   0.88062762  0.10846017  0.05416134
   0.78445174  0.55294522  0.94225118
   0.89424483  0.44052887  0.05621445
   0.77243626  0.88963461  0.95076845
   0.89884670  0.78061102  0.05222347
unknown system                          
           1
     8.357009    4.861418    0.000000
    -8.333866    4.821518    0.000000
     0.000000    0.000000   30.000000
   V    Mo   W    S 
   3   3   3  18
Direct configuration=    18
   0.34233685  0.00873870 -0.00227488
   0.30485973  0.65751145  0.00109376
   0.67938049  0.02763501  0.00084845
   0.99912775  0.32456478 -0.00012578
   0.69744481  0.34957298 -0.00027170
   0.00075043  0.02355690  0.00005157
  -0.01817243  0.63841743  0.00022343
   0.29559574  0.31730842  0.00049168
   0.69912409  0.66303889 -0.00064911
   0.10592984  0.22145355  0.94312209
   0.22113684  0.10754837  0.05207865
   0.11388871  0.55596878  0.94694795
   0.22095042  0.44760097  0.05350841
   0.11070812  0.88654935  0.95470611
   0.22244871  0.77972344  0.04936564
   0.44519733  0.22642627  0.95275441
   0.55554039  0.11140302  0.04982074
   0.44442704  0.55708046  0.95494876
   0.54896192  0.43823382  0.04674422
   0.44508378  0.88975657  0.95368658
   0.55641387  0.77663919  0.04134437
   0.77668739  0.21722958  0.94600481
   0.88052935  0.10853319  0.05419466
   0.78452643  0.55299002  0.94227458
   0.89401300  0.44045836  0.05623186
   0.77247938  0.88975421  0.95063330
   0.89884446  0.78052073  0.05224534
unknown system                          
           1
     8.355757    4.861122    0.000000
    -8.333359    4.822499    0.000000
     0.000000    0.000000   30.000000
   V    Mo   W    S 
   3   3   3  18
Direct configuration=    19
   0.34324818  0.00919815 -0.00231496
   0.30435952  0.65693327  0.00115483
   0.67967149  0.02794576  0.00084338
   0.99901489  0.32473965 -0.00012748
   0.69744704  0.34927661 -0.00028525
   0.00028065  0.02344070  0.00006140
  -0.01802656  0.63814376  0.00022603
   0.29529231  0.31732352  0.00054036
   0.69955456  0.66335718 -0.00070304
   0.10579227  0.22140798  0.94314221
   0.22101024  0.10749585  0.05203073
   0.11386121  0.55588903  0.94688151
   0.22071356  0.44749117  0.05358798
   0.11077302  0.88656377  0.95487193
   0.22246694  0.77973424  0.04935401
   0.44518619  0.22670273  0.95274823
   0.55554700  0.11142019  0.04987467
   0.44443809  0.55709871  0.95502930
   0.54891678  0.43830405  0.04660752
   0.44512058  0.88968772  0.95373771
   0.55634295  0.77666120  0.04120393
   0.77670192  0.21725912  0.94594086
   0.88042988  0.10858683  0.05423300
   0.78472774  0.55295958  0.94227059
   0.89390062  0.44032610  0.05626812
   0.77243818  0.88981138  0.95057540
   0.89900521  0.78045621  0.05224693
unknown system                          
           1
     8.346109    4.859494    0.000000
    -8.326167    4.825059    0.000000
     0.000000    0.000000   30.000000
   V    Mo   W    S 
   3   3   3  18
Direct configuration=    20
   0.34211734  0.00864327 -0.00227843
   0.30482979  0.65758392  0.00109114
   0.67933018  0.02774651  0.00085968
   0.99909281  0.32451768 -0.00012542
   0.69755199  0.34954265 -0.00026500
   0.00084214  0.02362742  0.00004971
  -0.01814609  0.63838339  0.00023082
   0.29558609  0.31729938  0.00048849
   0.69915665  0.66300525 -0.00064401
   0.10594047  0.22145262  0.94310883
   0.22114659  0.10755604  0.05207898
   0.11386234  0.55594782  0.94692513
   0.22097533  0.44761191  0.05350411
   0.11067883  0.88653042  0.95469395
   0.22243706  0.77976621  0.04938721
   0.44521975  0.22640932  0.95278236
   0.55551262  0.11141037  0.04980898
   0.44443595  0.55709259  0.95496069
   0.54894797  0.43817332  0.04673366
   0.44506379  0.88980802  0.95369657
   0.55642837  0.77664836  0.04131976
   0.77670107  0.21722273  0.94600017
   0.88052459  0.10852526  0.05418916
   0.78456083  0.55297752  0.94227211
   0.89405604  0.44045079  0.05623330
   0.77246162  0.88975031  0.95065095
   0.89890035  0.78053136  0.05224700
unknown system                          
           1
     8.343344    4.859317    0.000000
    -8.324464    4.826695    0.000000
     0.000000    0.000000   30.000000
   V    Mo   W    S 
   3   3   3  18
Direct configuration=    21
   0.33913519  0.00727856 -0.00215280
   0.30622310  0.65901817  0.00093320
   0.67849417  0.02715754  0.00088791
   0.99918563  0.32412174 -0.00012550
   0.69778108  0.35022041 -0.00022903
   0.00225203  0.02399604  0.00003095
  -0.01849683  0.63888858  0.00024379
   0.29631940  0.31720844  0.00037203
   0.69834277  0.66233472 -0.00051054
   0.10636969  0.22162183  0.94307522
   0.22153051  0.10771152  0.05220926
   0.11387816  0.55610320  0.94705209
   0.22153189  0.44778982  0.05328822
   0.11050136  0.88643011  0.95422504
   0.22245576  0.77989559  0.04943235
   0.44528129  0.22563605  0.95286942
   0.55526374  0.11134343  0.04963064
   0.44448416  0.55713704  0.95472958
   0.54910967  0.43793176  0.04705505
   0.44480645  0.89017860  0.95361692
   0.55665619  0.77671092  0.04164736
   0.77667170  0.21712614  0.94613208
   0.88076832  0.10839270  0.05407038
   0.78415464  0.55304862  0.94231421
   0.89443220  0.44073000  0.05615329
   0.77249078  0.88957959  0.95080618
   0.89859140  0.78062333  0.05224261
unknown system                          
           1
     8.343187    4.859279    0.000000
    -8.324968    4.827792    0.000000
     0.000000    0.000000   30.000000
   V    Mo   W    S 
   3   3   3  18
Direct configuration=    22
   0.33616024  0.00587472 -0.00208451
   0.30692169  0.66017833  0.00080118
   0.67776366  0.02690388  0.00093364
   0.99933775  0.32383521 -0.00013276
   0.69821321  0.35087844 -0.00020346
   0.00349285  0.02437159 -0.00000914
  -0.01851646  0.63926895  0.00025711
   0.29681592  0.31713969  0.00026355
   0.69776804  0.66169437 -0.00039501
   0.10667648  0.22171570  0.94300670
   0.22177635  0.10786100  0.05233892
   0.11393957  0.55621412  0.94712267
   0.22201545  0.44803559  0.05311814
   0.11014803  0.88624505  0.95383743
   0.22244304  0.77997725  0.04952542
   0.44546512  0.22513536  0.95301810
   0.55507200  0.11140817  0.04949841
   0.44457208  0.55721376  0.95464125
   0.54925100  0.43767420  0.04723269
   0.44454123  0.89045555  0.95357089
   0.55683157  0.77670715  0.04179365
   0.77672020  0.21704408  0.94619906
   0.88098036  0.10828443  0.05397235
   0.78394945  0.55301613  0.94233071
   0.89486882  0.44091242  0.05612871
   0.77248326  0.88941977  0.95099791
   0.89852352  0.78074955  0.05223627
unknown system                          
           1
     8.348202    4.860681    0.000000
    -8.330303    4.829754    0.000000
     0.000000    0.000000   30.000000
   V    Mo   W    S 
   3   3   3  18
Direct configuration=    23
   0.33488876  0.00522552 -0.00205488
   0.30717975  0.66056310  0.00075609
   0.67760367  0.02697190  0.00095913
   0.99923766  0.32362437 -0.00013446
   0.69848094  0.35105767 -0.00019549
   0.00384635  0.02449376 -0.00000999
  -0.01847573  0.63942593  0.00028184
   0.29695306  0.31710676  0.00023001
   0.69763353  0.66146558 -0.00036064
   0.10677628  0.22174845  0.94297471
   0.22182546  0.10793702  0.05239285
   0.11394244  0.55620969  0.94712389
   0.22216886  0.44810802  0.05307229
   0.10993544  0.88617598  0.95367133
   0.22243747  0.77999308  0.04958987
   0.44560312  0.22504215  0.95309005
   0.55506789  0.11148617  0.04943010
   0.44462072  0.55723752  0.95462326
   0.54930840  0.43760206  0.04728407
   0.44445944  0.89055061  0.95355941
   0.55693062  0.77676080  0.04182179
   0.77672922  0.21699581  0.94623015
   0.88105515  0.10824255  0.05391924
   0.78395025  0.55303345  0.94233058
   0.89504390  0.44097486  0.05611874
   0.77245266  0.88938626  0.95107061
   0.89855912  0.78079538  0.05222536
unknown system                          
           1
     8.347287    4.859718    0.000000
    -8.328136    4.826643    0.000000
     0.000000    0.000000   30.000000
   V    Mo   W    S 
   3   3   3  18
Direct configuration=    24
   0.33196874  0.00360459 -0.00200928
   0.30713637  0.66065205  0.00068769
   0.67740339  0.02714255  0.00100524
   0.99925842  0.32369448 -0.00015590
   0.69908423  0.35145400 -0.00020377
   0.00442576  0.02459539 -0.00004902
  -0.01783830  0.63970743  0.00032060
   0.29700951  0.31707914  0.00019697
   0.69764440  0.66127467 -0.00033513
   0.10692012  0.22178006  0.94294791
   0.22178049  0.10814604  0.05252216
   0.11409862  0.55619655  0.94712107
   0.22229340  0.44819862  0.05303386
   0.10935786  0.88600417  0.95334560
   0.22258107  0.77988763  0.04971179
   0.44600847  0.22519606  0.95329467
   0.55507284  0.11182659  0.04932308
   0.44475839  0.55733486  0.95466291
   0.54947762  0.43760136  0.04726529
   0.44418852  0.89057161  0.95360497