   27   27  100    1
  0.9710400E+02  0.1002848E-08  0.1002848E-08  0.3000000E-08  0.5000000E-15
  1.000000000000000E-004
  CAR 
 unknown system                          
    159     34    120
 
  0.0000000E+00  0.0000000E+00  0.0000000E+00  0.1562500E-01
    1      -17.807683   1.000000
    2      -16.732677   1.000000
    3      -16.585507   1.000000
    4      -16.556859   1.000000
    5      -16.480606   1.000000
    6      -16.417688   1.000000
    7      -16.401321   1.000000
    8      -16.384480   1.000000
    9      -16.205986   1.000000
   10      -16.106133   1.000000
   11      -16.046977   1.000000
   12      -16.008392   1.000000
   13      -15.840020   1.000000
   14      -15.832988   1.000000
   15      -15.552574   1.000000
   16      -15.502583   1.000000
   17      -15.499367   1.000000
   18      -15.258763   1.000000
   19       -9.147501   1.000000
   20       -8.869383   1.000000
   21       -8.848532   1.000000
   22       -8.796445   1.000000
   23       -8.731397   1.000000
   24       -8.710524   1.000000
   25       -8.635167   1.000000
   26       -8.617472   1.000000
   27       -8.542266   1.000000
   28       -8.482259   1.000000
   29       -8.448730   1.000000
   30       -8.334071   1.000000
   31       -8.251620   1.000000
   32       -8.241588   1.000000
   33       -8.191651   1.000000
   34       -8.130550   1.000000
   35       -7.980253   1.000000
   36       -7.832835   1.000000
   37       -7.754412   1.000000
   38       -7.555219   1.000000
   39       -7.471208   1.000000
   40       -7.413516   1.000000
   41       -7.278334   1.000000
   42       -7.276086   1.000000
   43       -7.154304   1.000000
   44       -6.961145   1.000000
   45       -6.865372   1.000000
   46       -6.851095   1.000000
   47       -6.770427   1.000000
   48       -6.742996   1.000000
   49       -6.572953   1.000000
   50       -6.567958   1.000000
   51       -6.510276   1.000000
   52       -6.416844   1.000000
   53       -6.244368   1.000000
   54       -6.131380   1.000000
   55       -6.116061   1.000000
   56       -6.000933   1.000000
   57       -5.899606   1.000000
   58       -5.833982   1.000000
   59       -5.815196   1.000000
   60       -5.571050   1.000000
   61       -5.547392   1.000000
   62       -5.393845   1.000000
   63       -5.316551   1.000000
   64       -5.214482   1.000000
   65       -5.070219   1.000000
   66       -4.980269   1.000000
   67       -4.928362   1.000000
   68       -4.770818   1.000000
   69       -4.704962   1.000000
   70       -4.642568   1.000000
   71       -4.595471   1.000000
   72       -4.531712   1.000000
   73       -4.481626   1.000000
   74       -4.327187   1.000000
   75       -4.088922   1.000000
   76       -4.080278   1.000000
   77       -3.681411   0.987351
   78       -3.530171   0.878476
   79       -3.490532   0.812491
   80       -3.460369   0.749791
   81       -3.228728   0.167492
   82       -2.799358   0.000032
   83       -2.741691   0.000005
   84       -2.624315   0.000000
   85       -2.425748   0.000000
   86       -2.321171   0.000000
   87       -2.228761   0.000000
   88       -2.154426   0.000000
   89       -1.987588   0.000000
   90       -1.945140   0.000000
   91       -1.541345   0.000000
   92       -1.482419   0.000000
   93       -1.422593   0.000000
   94       -1.253358   0.000000
   95       -1.223594   0.000000
   96       -1.154179   0.000000
   97       -1.122262   0.000000
   98       -1.109043   0.000000
   99       -0.846629   0.000000
  100       -0.689951   0.000000
  101       -0.652437   0.000000
  102       -0.619848   0.000000
  103       -0.449477   0.000000
  104       -0.420841   0.000000
  105       -0.366342   0.000000
  106       -0.060030   0.000000
  107       -0.021824   0.000000
  108        0.133137   0.000000
  109        0.147568   0.000000
  110        0.251531   0.000000
  111        0.331126   0.000000
  112        0.409591   0.000000
  113        0.536811   0.000000
  114        0.981022   0.000000
  115        1.037707   0.000000
  116        1.104543   0.000000
  117        1.464493   0.000000
  118        1.653019   0.000000
  119        1.838673   0.000000
  120        2.162850   0.000000
 
  0.1250000E+00  0.2775558E-16  0.0000000E+00  0.3125000E-01
    1      -17.781917   1.000000
    2      -16.783188   1.000000
    3      -16.658609   1.000000
    4      -16.605247   1.000000
    5      -16.539654   1.000000
    6      -16.416405   1.000000
    7      -16.343913   1.000000
    8      -16.292520   1.000000
    9      -16.181757   1.000000
   10      -16.099199   1.000000
   11      -16.031130   1.000000
   12      -15.968692   1.000000
   13      -15.837897   1.000000
   14      -15.823306   1.000000
   15      -15.576687   1.000000
   16      -15.506973   1.000000
   17      -15.496033   1.000000
   18      -15.265613   1.000000
   19       -9.128973   1.000000
   20       -9.090423   1.000000
   21       -8.964006   1.000000
   22       -8.893997   1.000000
   23       -8.837641   1.000000
   24       -8.686365   1.000000
   25       -8.649965   1.000000
   26       -8.612345   1.000000
   27       -8.523090   1.000000
   28       -8.442281   1.000000
   29       -8.364271   1.000000
   30       -8.271518   1.000000
   31       -8.234468   1.000000
   32       -8.134012   1.000000
   33       -8.093846   1.000000
   34       -7.989080   1.000000
   35       -7.914073   1.000000
   36       -7.801086   1.000000
   37       -7.687528   1.000000
   38       -7.621807   1.000000
   39       -7.524177   1.000000
   40       -7.349719   1.000000
   41       -7.307041   1.000000
   42       -7.246840   1.000000
   43       -7.139898   1.000000
   44       -7.017585   1.000000
   45       -6.956212   1.000000
   46       -6.841276   1.000000
   47       -6.793558   1.000000
   48       -6.666285   1.000000
   49       -6.600871   1.000000
   50       -6.553745   1.000000
   51       -6.488617   1.000000
   52       -6.376401   1.000000
   53       -6.247259   1.000000
   54       -6.175971   1.000000
   55       -6.117001   1.000000
   56       -5.997887   1.000000
   57       -5.935039   1.000000
   58       -5.841507   1.000000
   59       -5.770002   1.000000
   60       -5.569443   1.000000
   61       -5.521199   1.000000
   62       -5.417744   1.000000
   63       -5.368317   1.000000
   64       -5.235378   1.000000
   65       -5.100752   1.000000
   66       -5.045977   1.000000
   67       -4.954985   1.000000
   68       -4.866465   1.000000
   69       -4.732341   1.000000
   70       -4.647119   1.000000
   71       -4.546602   1.000000
   72       -4.492858   1.000000
   73       -4.431766   1.000000
   74       -4.182817   1.000000
   75       -4.111294   1.000000
   76       -4.005923   0.999997
   77       -3.749515   0.996720
   78       -3.660523   0.981652
   79       -3.602161   0.953175
   80       -3.404477   0.609730
   81       -3.116899   0.039640
   82       -2.792924   0.000026
   83       -2.713991   0.000002
   84       -2.623927   0.000000
   85       -2.417320   0.000000
   86       -2.309318   0.000000
   87       -2.197482   0.000000
   88       -2.134663   0.000000
   89       -1.998462   0.000000
   90       -1.909542   0.000000
   91       -1.564725   0.000000
   92       -1.499182   0.000000
   93       -1.403372   0.000000
   94       -1.253533   0.000000
   95       -1.224925   0.000000
   96       -1.169197   0.000000
   97       -1.108260   0.000000
   98       -1.091037   0.000000
   99       -0.846341   0.000000
  100       -0.760733   0.000000
  101       -0.729282   0.000000
  102       -0.690827   0.000000
  103       -0.550543   0.000000
  104       -0.461466   0.000000
  105       -0.399716   0.000000
  106       -0.067751   0.000000
  107       -0.039504   0.000000
  108        0.087256   0.000000
  109        0.161041   0.000000
  110        0.286141   0.000000
  111        0.379022   0.000000
  112        0.475016   0.000000
  113        0.567405   0.000000
  114        0.966522   0.000000
  115        1.056257   0.000000
  116        1.127648   0.000000
  117        1.433432   0.000000
  118        1.696849   0.000000
  119        1.876829   0.000000
  120        2.198030   0.000000
 
  0.2500000E+00  0.5551115E-16  0.0000000E+00  0.3125000E-01
    1      -17.705588   1.000000
    2      -16.979605   1.000000
    3      -16.699325   1.000000
    4      -16.668559   1.000000
    5      -16.586131   1.000000
    6      -16.405063   1.000000
    7      -16.301045   1.000000
    8      -16.184901   1.000000
    9      -16.131550   1.000000
   10      -16.080740   1.000000
   11      -16.005709   1.000000
   12      -15.900352   1.000000
   13      -15.821662   1.000000
   14      -15.786920   1.000000
   15      -15.631218   1.000000
   16      -15.513417   1.000000
   17      -15.493163   1.000000
   18      -15.284850   1.000000
   19       -9.439525   1.000000
   20       -9.139264   1.000000
   21       -9.050156   1.000000
   22       -9.025106   1.000000
   23       -8.921029   1.000000
   24       -8.800551   1.000000
   25       -8.606715   1.000000
   26       -8.578539   1.000000
   27       -8.478641   1.000000
   28       -8.367528   1.000000
   29       -8.308995   1.000000
   30       -8.245158   1.000000
   31       -8.153461   1.000000
   32       -8.124850   1.000000
   33       -7.937735   1.000000
   34       -7.864553   1.000000
   35       -7.767289   1.000000
   36       -7.709293   1.000000
   37       -7.626668   1.000000
   38       -7.515160   1.000000
   39       -7.470218   1.000000
   40       -7.382782   1.000000
   41       -7.284594   1.000000
   42       -7.233299   1.000000
   43       -7.087760   1.000000
   44       -7.065783   1.000000
   45       -6.961991   1.000000
   46       -6.902734   1.000000
   47       -6.771347   1.000000
   48       -6.660062   1.000000
   49       -6.632284   1.000000
   50       -6.524126   1.000000
   51       -6.400755   1.000000
   52       -6.337615   1.000000
   53       -6.256698   1.000000
   54       -6.157027   1.000000
   55       -6.119762   1.000000
   56       -6.074937   1.000000
   57       -5.937435   1.000000
   58       -5.851015   1.000000
   59       -5.734949   1.000000
   60       -5.697696   1.000000
   61       -5.614082   1.000000
   62       -5.461605   1.000000
   63       -5.424997   1.000000
   64       -5.362549   1.000000
   65       -5.218408   1.000000
   66       -5.072543   1.000000
   67       -4.917074   1.000000
   68       -4.885792   1.000000
   69       -4.766120   1.000000
   70       -4.671171   1.000000
   71       -4.509281   1.000000
   72       -4.372007   1.000000
   73       -4.306897   1.000000
   74       -4.228301   1.000000
   75       -4.040501   0.999999
   76       -3.969758   0.999990
   77       -3.875559   0.999847
   78       -3.770106   0.997908
   79       -3.626986   0.967986
   80       -3.388603   0.566066
   81       -3.002264   0.005152
   82       -2.783726   0.000020
   83       -2.660270   0.000000
   84       -2.600533   0.000000
   85       -2.380885   0.000000
   86       -2.308834   0.000000
   87       -2.156657   0.000000
   88       -2.044654   0.000000
   89       -1.984083   0.000000
   90       -1.838992   0.000000
   91       -1.603216   0.000000
   92       -1.523966   0.000000
   93       -1.396885   0.000000
   94       -1.295858   0.000000
   95       -1.213930   0.000000
   96       -1.194775   0.000000
   97       -1.088875   0.000000
   98       -1.064625   0.000000
   99       -0.967832   0.000000
  100       -0.876582   0.000000
  101       -0.834260   0.000000
  102       -0.786823   0.000000
  103       -0.700549   0.000000
  104       -0.596174   0.000000
  105       -0.418452   0.000000
  106       -0.190300   0.000000
  107       -0.081112   0.000000
  108        0.012456   0.000000
  109        0.156771   0.000000
  110        0.319248   0.000000
  111        0.444103   0.000000
  112        0.569365   0.000000
  113        0.688298   0.000000
  114        0.951205   0.000000
  115        1.072462   0.000000
  116        1.209861   0.000000
  117        1.404058   0.000000
  118        1.819408   0.000000
  119        1.987328   0.000000
  120        2.302504   0.000000
 
  0.3750000E+00  0.0000000E+00  0.0000000E+00  0.3125000E-01
    1      -17.582240   1.000000
    2      -17.202403   1.000000
    3      -16.735716   1.000000
    4      -16.696972   1.000000
    5      -16.595126   1.000000
    6      -16.431954   1.000000
    7      -16.263461   1.000000
    8      -16.130926   1.000000
    9      -16.073141   1.000000
   10      -16.031594   1.000000
   11      -15.966747   1.000000
   12      -15.886545   1.000000
   13      -15.835555   1.000000
   14      -15.730129   1.000000
   15      -15.686918   1.000000
   16      -15.505952   1.000000
   17      -15.484759   1.000000
   18      -15.309997   1.000000
   19       -9.671831   1.000000
   20       -9.256704   1.000000
   21       -9.138541   1.000000
   22       -9.033819   1.000000
   23       -8.924817   1.000000
   24       -8.848165   1.000000
   25       -8.546267   1.000000
   26       -8.500621   1.000000
   27       -8.419678   1.000000
   28       -8.392405   1.000000
   29       -8.292505   1.000000
   30       -8.235206   1.000000
   31       -8.215405   1.000000
   32       -8.051438   1.000000
   33       -7.924653   1.000000
   34       -7.890763   1.000000
   35       -7.673728   1.000000
   36       -7.628301   1.000000
   37       -7.606344   1.000000
   38       -7.566975   1.000000
   39       -7.339946   1.000000
   40       -7.253561   1.000000
   41       -7.219829   1.000000
   42       -7.144426   1.000000
   43       -7.076221   1.000000
   44       -7.052187   1.000000
   45       -6.888786   1.000000
   46       -6.823627   1.000000
   47       -6.759553   1.000000
   48       -6.663555   1.000000
   49       -6.539059   1.000000
   50       -6.459835   1.000000
   51       -6.377811   1.000000
   52       -6.327508   1.000000
   53       -6.267680   1.000000
   54       -6.208844   1.000000
   55       -6.103394   1.000000
   56       -6.067478   1.000000
   57       -6.011294   1.000000
   58       -5.955132   1.000000
   59       -5.837430   1.000000
   60       -5.748860   1.000000
   61       -5.691637   1.000000
   62       -5.621266   1.000000
   63       -5.546548   1.000000
   64       -5.377110   1.000000
   65       -5.231398   1.000000
   66       -5.034853   1.000000
   67       -4.896637   1.000000
   68       -4.842629   1.000000
   69       -4.812475   1.000000
   70       -4.723890   1.000000
   71       -4.575812   1.000000
   72       -4.443059   1.000000
   73       -4.241772   1.000000
   74       -4.170461   1.000000
   75       -4.094988   1.000000
   76       -3.927215   0.999965
   77       -3.852033   0.999713
   78       -3.707153   0.992215
   79       -3.613043   0.960233
   80       -3.420613   0.652733
   81       -2.940741   0.001348
   82       -2.773134   0.000014
   83       -2.615643   0.000000
   84       -2.575633   0.000000
   85       -2.344112   0.000000
   86       -2.301729   0.000000
   87       -2.116563   0.000000
   88       -1.952574   0.000000
   89       -1.916326   0.000000
   90       -1.765216   0.000000
   91       -1.626439   0.000000
   92       -1.549749   0.000000
   93       -1.428733   0.000000
   94       -1.398295   0.000000
   95       -1.252305   0.000000
   96       -1.210376   0.000000
   97       -1.127031   0.000000
   98       -1.052704   0.000000
   99       -1.047671   0.000000
  100       -0.973581   0.000000
  101       -0.908570   0.000000
  102       -0.828132   0.000000
  103       -0.776536   0.000000
  104       -0.683606   0.000000
  105       -0.437241   0.000000
  106       -0.321431   0.000000
  107       -0.162302   0.000000
  108       -0.048189   0.000000
  109        0.102429   0.000000
  110        0.305803   0.000000
  111        0.504816   0.000000
  112        0.632930   0.000000
  113        0.799308   0.000000
  114        0.944286   0.000000
  115        1.091332   0.000000
  116        1.273840   0.000000
  117        1.443892   0.000000
  118        2.002764   0.000000
  119        2.162394   0.000000
  120        2.473338   0.000000
 
  0.5000000E+00  0.1110223E-15  0.0000000E+00  0.1562500E-01
    1      -17.447206   1.000000
    2      -17.372858   1.000000
    3      -16.750848   1.000000
    4      -16.706424   1.000000
    5      -16.592054   1.000000
    6      -16.446734   1.000000
    7      -16.251615   1.000000
    8      -16.125012   1.000000
    9      -16.038800   1.000000
   10      -15.997581   1.000000
   11      -15.938285   1.000000
   12      -15.895667   1.000000
   13      -15.816383   1.000000
   14      -15.789987   1.000000
   15      -15.669239   1.000000
   16      -15.509320   1.000000
   17      -15.465799   1.000000
   18      -15.323842   1.000000
   19       -9.754027   1.000000
   20       -9.297353   1.000000
   21       -9.174515   1.000000
   22       -9.060865   1.000000
   23       -8.944750   1.000000
   24       -8.758613   1.000000
   25       -8.559264   1.000000
   26       -8.486026   1.000000
   27       -8.449815   1.000000
   28       -8.357486   1.000000
   29       -8.280893   1.000000
   30       -8.254453   1.000000
   31       -8.214385   1.000000
   32       -8.017673   1.000000
   33       -7.930237   1.000000
   34       -7.881062   1.000000
   35       -7.734699   1.000000
   36       -7.645638   1.000000
   37       -7.599600   1.000000
   38       -7.553177   1.000000
   39       -7.359931   1.000000
   40       -7.231735   1.000000
   41       -7.135286   1.000000
   42       -7.064776   1.000000
   43       -7.035201   1.000000
   44       -6.917166   1.000000
   45       -6.912850   1.000000
   46       -6.772742   1.000000
   47       -6.670714   1.000000
   48       -6.617326   1.000000
   49       -6.555662   1.000000
   50       -6.467923   1.000000
   51       -6.426635   1.000000
   52       -6.321126   1.000000
   53       -6.290197   1.000000
   54       -6.244069   1.000000
   55       -6.165181   1.000000
   56       -6.082258   1.000000
   57       -6.048761   1.000000
   58       -5.923875   1.000000
   59       -5.875138   1.000000
   60       -5.785771   1.000000
   61       -5.680816   1.000000
   62       -5.586396   1.000000
   63       -5.565804   1.000000
   64       -5.410092   1.000000
   65       -5.282228   1.000000
   66       -5.142148   1.000000
   67       -4.901988   1.000000
   68       -4.879276   1.000000
   69       -4.820021   1.000000
   70       -4.701579   1.000000
   71       -4.581905   1.000000
   72       -4.443295   1.000000
   73       -4.219695   1.000000
   74       -4.172912   1.000000
   75       -4.114731   1.000000
   76       -3.893259   0.999906
   77       -3.811282   0.999198
   78       -3.685889   0.988351
   79       -3.589165   0.943466
   80       -3.450778   0.727746
   81       -2.921750   0.000860
   82       -2.765184   0.000011
   83       -2.602274   0.000000
   84       -2.564556   0.000000
   85       -2.360880   0.000000
   86       -2.258090   0.000000
   87       -2.099048   0.000000
   88       -1.927195   0.000000
   89       -1.848927   0.000000
   90       -1.743815   0.000000
   91       -1.628318   0.000000
   92       -1.559107   0.000000
   93       -1.476684   0.000000
   94       -1.448408   0.000000
   95       -1.295585   0.000000
   96       -1.220935   0.000000
   97       -1.159442   0.000000
   98       -1.049722   0.000000
   99       -1.045361   0.000000
  100       -0.994185   0.000000
  101       -0.941200   0.000000
  102       -0.848252   0.000000
  103       -0.779208   0.000000
  104       -0.718287   0.000000
  105       -0.442083   0.000000
  106       -0.381668   0.000000
  107       -0.199480   0.000000
  108       -0.073523   0.000000
  109        0.074072   0.000000
  110        0.294476   0.000000
  111        0.525655   0.000000
  112        0.654514   0.000000
  113        0.840891   0.000000
  114        0.937901   0.000000
  115        1.103027   0.000000
  116        1.294229   0.000000
  117        1.475322   0.000000
  118        2.211015   0.000000
  119        2.266923   0.000000
  120        2.383573   0.000000
 
  0.0000000E+00  0.1250000E+00  0.0000000E+00  0.3125000E-01
    1      -17.781653   1.000000
    2      -16.774801   1.000000
    3      -16.684467   1.000000
    4      -16.594483   1.000000
    5      -16.500124   1.000000
    6      -16.416756   1.000000
    7      -16.375881   1.000000
    8      -16.311737   1.000000
    9      -16.204793   1.000000
   10      -16.082006   1.000000
   11      -16.005634   1.000000
   12      -15.965554   1.000000
   13      -15.856286   1.000000
   14      -15.804818   1.000000
   15      -15.583553   1.000000
   16      -15.502823   1.000000
   17      -15.490873   1.000000
   18      -15.272031   1.000000
   19       -9.121038   1.000000
   20       -9.089517   1.000000
   21       -8.926532   1.000000
   22       -8.887314   1.000000
   23       -8.829616   1.000000
   24       -8.768465   1.000000
   25       -8.685009   1.000000
   26       -8.611108   1.000000
   27       -8.533387   1.000000
   28       -8.410903   1.000000
   29       -8.340869   1.000000
   30       -8.295493   1.000000
   31       -8.244191   1.000000
   32       -8.142562   1.000000
   33       -8.057496   1.000000
   34       -7.955033   1.000000
   35       -7.928641   1.000000
   36       -7.786349   1.000000
   37       -7.776047   1.000000
   38       -7.532581   1.000000
   39       -7.440252   1.000000
   40       -7.401534   1.000000
   41       -7.302068   1.000000
   42       -7.249728   1.000000
   43       -7.177901   1.000000
   44       -7.002022   1.000000
   45       -6.953841   1.000000
   46       -6.853464   1.000000
   47       -6.776997   1.000000
   48       -6.724009   1.000000
   49       -6.621903   1.000000
   50       -6.589533   1.000000
   51       -6.514305   1.000000
   52       -6.339305   1.000000
   53       -6.253415   1.000000
   54       -6.152159   1.000000
   55       -6.049738   1.000000
   56       -6.019463   1.000000
   57       -5.914456   1.000000
   58       -5.846415   1.000000
   59       -5.763243   1.000000
   60       -5.554144   1.000000
   61       -5.492628   1.000000
   62       -5.422229   1.000000
   63       -5.307382   1.000000
   64       -5.276511   1.000000
   65       -5.181556   1.000000
   66       -5.001681   1.000000
   67       -4.972919   1.000000
   68       -4.935751   1.000000
   69       -4.779372   1.000000
   70       -4.598125   1.000000
   71       -4.537614   1.000000
   72       -4.445157   1.000000
   73       -4.360028   1.000000
   74       -4.280118   1.000000
   75       -4.107119   1.000000
   76       -3.992665   0.999995
   77       -3.742593   0.996201
   78       -3.670204   0.984520
   79       -3.608526   0.957416
   80       -3.336042   0.418670
   81       -3.171756   0.085817
   82       -2.826877   0.000071
   83       -2.729937   0.000004
   84       -2.589645   0.000000
   85       -2.469601   0.000000
   86       -2.283640   0.000000
   87       -2.192328   0.000000
   88       -2.128847   0.000000
   89       -2.017481   0.000000
   90       -1.885075   0.000000
   91       -1.576157   0.000000
   92       -1.480659   0.000000
   93       -1.407460   0.000000
   94       -1.260629   0.000000
   95       -1.233691   0.000000
   96       -1.163448   0.000000
   97       -1.108678   0.000000
   98       -1.089977   0.000000
   99       -0.836642   0.000000
  100       -0.747758   0.000000
  101       -0.688036   0.000000
  102       -0.654562   0.000000
  103       -0.522122   0.000000
  104       -0.509406   0.000000
  105       -0.417356   0.000000
  106       -0.126504   0.000000
  107       -0.087719   0.000000
  108        0.100056   0.000000
  109        0.185587   0.000000
  110        0.222298   0.000000
  111        0.408930   0.000000
  112        0.516476   0.000000
  113        0.617795   0.000000
  114        0.969617   0.000000
  115        1.056564   0.000000
  116        1.115384   0.000000
  117        1.405749   0.000000
  118        1.698676   0.000000
  119        1.876038   0.000000
  120        2.198218   0.000000
 
  0.1250000E+00  0.1250000E+00  0.0000000E+00  0.3125000E-01
    1      -17.730325   1.000000
    2      -16.887540   1.000000
    3      -16.778916   1.000000
    4      -16.654690   1.000000
    5      -16.454810   1.000000
    6      -16.406424   1.000000
    7      -16.367643   1.000000
    8      -16.258503   1.000000
    9      -16.160298   1.000000
   10      -16.069497   1.000000
   11      -15.989930   1.000000
   12      -15.913042   1.000000
   13      -15.835951   1.000000
   14      -15.772221   1.000000
   15      -15.619887   1.000000
   16      -15.512621   1.000000
   17      -15.485239   1.000000
   18      -15.289994   1.000000
   19       -9.281263   1.000000
   20       -9.238631   1.000000
   21       -9.068016   1.000000
   22       -8.981392   1.000000
   23       -8.801012   1.000000
   24       -8.753301   1.000000
   25       -8.665646   1.000000
   26       -8.613417   1.000000
   27       -8.530099   1.000000
   28       -8.347527   1.000000
   29       -8.328173   1.000000
   30       -8.245840   1.000000
   31       -8.213833   1.000000
   32       -8.088868   1.000000
   33       -7.953493   1.000000
   34       -7.902156   1.000000
   35       -7.820189   1.000000
   36       -7.775327   1.000000
   37       -7.590924   1.000000
   38       -7.533412   1.000000
   39       -7.380397   1.000000
   40       -7.344158   1.000000
   41       -7.307583   1.000000
   42       -7.252991   1.000000
   43       -7.161546   1.000000
   44       -7.043974   1.000000
   45       -6.996433   1.000000
   46       -6.903860   1.000000
   47       -6.792185   1.000000
   48       -6.742524   1.000000
   49       -6.635210   1.000000
   50       -6.536394   1.000000
   51       -6.468482   1.000000
   52       -6.318932   1.000000
   53       -6.248355   1.000000
   54       -6.133661   1.000000
   55       -6.089566   1.000000
   56       -6.045091   1.000000
   57       -5.896108   1.000000
   58       -5.853791   1.000000
   59       -5.710943   1.000000
   60       -5.610701   1.000000
   61       -5.521423   1.000000
   62       -5.458491   1.000000
   63       -5.403994   1.000000
   64       -5.326138   1.000000
   65       -5.189454   1.000000
   66       -5.160089   1.000000
   67       -5.010687   1.000000
   68       -4.929584   1.000000
   69       -4.754015   1.000000
   70       -4.620425   1.000000
   71       -4.493684   1.000000
   72       -4.393539   1.000000
   73       -4.275805   1.000000
   74       -4.146280   1.000000
   75       -4.123859   1.000000
   76       -4.061592   1.000000
   77       -3.821764   0.999379
   78       -3.714041   0.993198
   79       -3.639071   0.973654
   80       -3.321940   0.380178
   81       -3.090419   0.026062
   82       -2.832419   0.000083
   83       -2.700701   0.000001
   84       -2.578881   0.000000
   85       -2.454321   0.000000
   86       -2.284586   0.000000
   87       -2.172423   0.000000
   88       -2.055052   0.000000
   89       -1.997027   0.000000
   90       -1.836383   0.000000
   91       -1.608300   0.000000
   92       -1.507149   0.000000
   93       -1.391848   0.000000
   94       -1.267400   0.000000
   95       -1.239216   0.000000
   96       -1.182334   0.000000
   97       -1.094131   0.000000
   98       -1.073926   0.000000
   99       -0.856008   0.000000
  100       -0.844183   0.000000
  101       -0.787491   0.000000
  102       -0.723796   0.000000
  103       -0.639106   0.000000
  104       -0.593482   0.000000
  105       -0.447480   0.000000
  106       -0.224750   0.000000
  107       -0.132186   0.000000
  108        0.064800   0.000000
  109        0.182620   0.000000
  110        0.259024   0.000000
  111        0.459191   0.000000
  112        0.591484   0.000000
  113        0.723406   0.000000
  114        0.939518   0.000000
  115        1.063704   0.000000
  116        1.179363   0.000000
  117        1.364202   0.000000
  118        1.782566   0.000000
  119        1.949442   0.000000
  120        2.268159   0.000000
 
  0.2500000E+00  0.1250000E+00  0.0000000E+00  0.3125000E-01
    1      -17.630023   1.000000
    2      -17.082316   1.000000
    3      -16.885865   1.000000
    4      -16.638845   1.000000
    5      -16.474987   1.000000
    6      -16.422987   1.000000
    7      -16.287842   1.000000
    8      -16.196878   1.000000
    9      -16.106079   1.000000
   10      -16.042021   1.000000
   11      -15.976614   1.000000
   12      -15.915188   1.000000
   13      -15.817485   1.000000
   14      -15.704999   1.000000
   15      -15.669560   1.000000
   16      -15.508861   1.000000
   17      -15.485732   1.000000
   18      -15.311592   1.000000
   19       -9.554675   1.000000
   20       -9.380755   1.000000
   21       -9.154926   1.000000
   22       -8.952040   1.000000
   23       -8.874693   1.000000
   24       -8.752381   1.000000
   25       -8.557892   1.000000
   26       -8.540063   1.000000
   27       -8.474092   1.000000
   28       -8.339013   1.000000
   29       -8.317982   1.000000
   30       -8.231538   1.000000
   31       -8.205827   1.000000
   32       -8.074112   1.000000
   33       -7.971185   1.000000
   34       -7.912747   1.000000
   35       -7.861181   1.000000
   36       -7.599549   1.000000
   37       -7.509414   1.000000
   38       -7.430766   1.000000
   39       -7.356824   1.000000
   40       -7.291061   1.000000
   41       -7.224380   1.000000
   42       -7.195907   1.000000
   43       -7.132380   1.000000
   44       -7.061739   1.000000
   45       -6.950170   1.000000
   46       -6.825345   1.000000
   47       -6.791691   1.000000