unknown system                          
           1
     8.855541    5.105205    0.000000
    -8.855783    5.105622    0.000000
     0.000000    0.000000   30.000000
   V    Mo   W    S 
   3   3   3  18
Direct configuration=     1
   0.00000000  0.66666669  0.00000000
   0.66666669  0.00000000  0.00000000
   0.33333334  0.33333334  0.00000000
   0.66666669  0.66666669  0.00000000
   0.00000000  0.00000000  0.00000000
   1.00000000  0.33333334  0.00000000
   0.33333334  0.00000000  0.00000000
   0.33333334  0.66666669  0.00000000
   0.66666669  0.33333334  0.00000000
   0.11068511  0.22244981  0.95539999
   0.22244981  0.11068511  0.04460000
   0.11068511  0.55578315  0.95539999
   0.22244981  0.44401845  0.04460000
   0.11068511  0.88911647  0.95539999
   0.22244981  0.77735180  0.04460000
   0.44401845  0.22244981  0.95539999
   0.55578315  0.11068511  0.04460000
   0.44401845  0.55578315  0.95539999
   0.55578315  0.44401845  0.04460000
   0.44401845  0.88911647  0.95539999
   0.55578315  0.77735180  0.04460000
   0.77735180  0.22244981  0.95539999
   0.88911647  0.11068511  0.04460000
   0.77735180  0.55578315  0.95539999
   0.88911647  0.44401845  0.04460000
   0.77735180  0.88911647  0.95539999
   0.88911647  0.77735180  0.04460000
unknown system                          
           1
     8.668145    4.999376    0.000000
    -8.668360    4.999747    0.000000
     0.000000    0.000000   30.000000
   V    Mo   W    S 
   3   3   3  18
Direct configuration=     2
  -0.00118493  0.66671857 -0.00000495
   0.66902113 -0.00009397 -0.00000301
   0.33210741  0.33331081  0.00000811
   0.66802951  0.66803550  0.00006323
  -0.00140744  0.00005561  0.00000160
   1.00006782  0.33191809 -0.00006681
   0.33177064  0.00004523  0.00000367
   0.33336877  0.66507328 -0.00004815
   0.66817938  0.33486563  0.00004633
   0.11557859  0.22440198  0.95191640
   0.22492018  0.11519867  0.04808532
   0.10951993  0.55844757  0.95204221
   0.22508726  0.44283289  0.04805575
   0.10972991  0.88461382  0.95192951
   0.21824642  0.77584553  0.04809202
   0.44226144  0.22418651  0.95197692
   0.55751738  0.10891835  0.04797678
   0.44161703  0.55130060  0.95190789
   0.55127494  0.44158703  0.04803212
   0.44822325  0.89068190  0.95194614
   0.55678104  0.78186444  0.04807565
   0.77491221  0.21791621  0.95192612
   0.88419993  0.10876180  0.04812743
   0.78183865  0.55678776  0.95188014
   0.89009914  0.44847705  0.04808173
   0.77521554  0.89124650  0.95193493
   0.89123933  0.77521709  0.04801282
unknown system                          
           1
     8.487154    4.899892    0.000000
    -8.487114    4.899822    0.000000
     0.000000    0.000000   30.000000
   V    Mo   W    S 
   3   3   3  18
Direct configuration=     3
  -0.00156195  0.66672282  0.00000007
   0.66977173 -0.00009357 -0.00000377
   0.33172799  0.33330612  0.00000387
   0.66842767  0.66842368  0.00010878
  -0.00181094  0.00006483  0.00000271
   1.00007003  0.33150293 -0.00011344
   0.33134590  0.00003415  0.00000501
   0.33337171  0.66465149 -0.00010592
   0.66861025  0.33530994  0.00010257
   0.11570382  0.22446407  0.95186259
   0.22510510  0.11519211  0.04807891
   0.10973923  0.55860774  0.95209347
   0.22525272  0.44300595  0.04810551
   0.10988450  0.88462425  0.95193358
   0.21836536  0.77587211  0.04801658
   0.44233651  0.22412484  0.95203944
   0.55742778  0.10899343  0.04785921
   0.44143134  0.55131117  0.95192086
   0.55130461  0.44138869  0.04797181
   0.44808206  0.89064007  0.95207443
   0.55660818  0.78187056  0.04806665
   0.77469522  0.21791531  0.95194059
   0.88405778  0.10866947  0.04822368
   0.78186000  0.55664587  0.95184080
   0.88994441  0.44846995  0.04806902
   0.77516572  0.89130662  0.95182945
   0.89129773  0.77518984  0.04807343
unknown system                          
           1
     8.278211    4.778902    0.000000
    -8.277652    4.777931    0.000000
     0.000000    0.000000   30.000000
   V    Mo   W    S 
   3   3   3  18
Direct configuration=     4
  -0.00295853  0.66672772  0.00001098
   0.67248820 -0.00009469 -0.00000151
   0.33030667  0.33326871 -0.00000964
   0.66980882  0.66971077  0.00022794
  -0.00315890  0.00007538  0.00000311
   1.00012384  0.33011509 -0.00023229
   0.32992382 -0.00002986  0.00000606
   0.33330224  0.66323937 -0.00027341
   0.66998144  0.33677746  0.00026846
   0.11688312  0.22492359  0.95021418
   0.22555216  0.11627747  0.04953022
   0.10931023  0.55911526  0.95085686
   0.22572561  0.44243654  0.04976593
   0.10913513  0.88355041  0.95048170
   0.21737075  0.77514927  0.04919768
   0.44202922  0.22473489  0.95081378
   0.55781838  0.10851518  0.04884865
   0.44102622  0.55023446  0.95050616
   0.55027776  0.44077591  0.04918194
   0.44903804  0.89124195  0.95111937
   0.55705030  0.78299976  0.04948308
   0.77390220  0.21681354  0.95054071
   0.88284850  0.10801196  0.05004271
   0.78303330  0.55734046  0.95021643
   0.89075418  0.44957921  0.04947983
   0.77464609  0.89186803  0.94997942
   0.89199569  0.77485660  0.04974154
unknown system                          
           1
     8.265608    4.772444    0.000000
    -8.265217    4.771764    0.000000
     0.000000    0.000000   30.000000
   V    Mo   W    S 
   3   3   3  18
Direct configuration=     5
  -0.00565575  0.66693790  0.00001763
   0.67763049 -0.00012279  0.00000770
   0.32739310  0.33299655 -0.00002626
   0.67266640  0.67216927  0.00029333
  -0.00548901  0.00003986 -0.00000583
   1.00040474  0.32752570 -0.00029047
   0.32670268 -0.00015815 -0.00000017
   0.33302677  0.66028922 -0.00042263
   0.67273996  0.33983895  0.00042655
   0.11759086  0.22484828  0.94782095
   0.22511363  0.11729391  0.05153381
   0.10846481  0.55899027  0.94925893
   0.22573931  0.44147543  0.05200665
   0.10768171  0.88256892  0.94848330
   0.21604158  0.77406892  0.05066469
   0.44185225  0.22571554  0.94932504
   0.55839898  0.10799798  0.04994701
   0.44138911  0.54916802  0.94861130
   0.54939484  0.44083302  0.05076687
   0.45032269  0.89189527  0.95003787
   0.55769979  0.78405772  0.05136350
   0.77348687  0.21577308  0.94866172
   0.88201203  0.10748307  0.05267649
   0.78422854  0.55844524  0.94800056
   0.89223009  0.45069489  0.05136306
   0.77446120  0.89233083  0.94732369
   0.89268679  0.77505757  0.05215459
unknown system                          
           1
     8.270124    4.774945    0.000000
    -8.269708    4.774222    0.000000
     0.000000    0.000000   30.000000
   V    Mo   W    S 
   3   3   3  18
Direct configuration=     6
  -0.00657382  0.66748375  0.00006833
   0.67953590 -0.00013184  0.00000052
   0.32592467  0.33244399 -0.00006944
   0.67367794  0.67295475  0.00028323
  -0.00556479  0.00007485 -0.00000098
   1.00062175  0.32667415 -0.00028629
   0.32484315 -0.00016611  0.00000552
   0.33295620  0.65909188 -0.00047707
   0.67382676  0.34103676  0.00047691
   0.11706322  0.22437205  0.94751043
   0.22440436  0.11716451  0.05176720
   0.10818824  0.55836778  0.94927973
   0.22544387  0.44119080  0.05228329
   0.10711581  0.88270665  0.94822921
   0.21585399  0.77377381  0.05064453
   0.44198163  0.22603048  0.94936321
   0.55848457  0.10802959  0.04969113
   0.44193705  0.54920313  0.94850992
   0.54972168  0.44145722  0.05074926
   0.45040246  0.89187189  0.95028608
   0.55782524  0.78388850  0.05147583
   0.77379667  0.21594570  0.94855501
   0.88238751  0.10752109  0.05305889
   0.78420265  0.55871951  0.94770212
   0.89273491  0.45066784  0.05147390
   0.77478905  0.89229943  0.94695105
   0.89263378  0.77554230  0.05246837
unknown system                          
           1
     8.248225    4.761543    0.000000
    -8.248463    4.761951    0.000000
     0.000000    0.000000   30.000000
   V    Mo   W    S 
   3   3   3  18
Direct configuration=     7
  -0.00680596  0.66769582  0.00007813
   0.68001732 -0.00013535  0.00000126
   0.32549708  0.33223596 -0.00008058
   0.67393345  0.67314112  0.00027483
  -0.00547063  0.00006369 -0.00000181
   1.00066574  0.32648328 -0.00027668
   0.32421713 -0.00018943  0.00000478
   0.33296099  0.65874541 -0.00049493
   0.67420387  0.34141987  0.00049501
   0.11693834  0.22427053  0.94751667
   0.22428165  0.11713839  0.05177214
   0.10814243  0.55824953  0.94937765
   0.22539534  0.44115171  0.05226833
   0.10702479  0.88272947  0.94822612
   0.21584330  0.77374672  0.05056209
   0.44200309  0.22605898  0.94944815
   0.55845445  0.10803226  0.04953579
   0.44204111  0.54920041  0.94856733
   0.54980038  0.44158290  0.05065615
   0.45036991  0.89186678  0.95043784
   0.55782931  0.78383754  0.05141959
   0.77385730  0.21599678  0.94861057
   0.88248858  0.10753199  0.05305289
   0.78419611  0.55875678  0.94771583
   0.89283750  0.45067438  0.05141498
   0.77488035  0.89229300  0.94695864
   0.89261151  0.77563592  0.05245912
unknown system                          
           1
     8.279391    4.780383    0.000000
    -8.278637    4.779074    0.000000
     0.000000    0.000000   30.000000
   V    Mo   W    S 
   3   3   3  18
Direct configuration=     8
  -0.00678562  0.66740384  0.00006828
   0.67986633 -0.00011213  0.00000557
   0.32586492  0.33250446 -0.00007789
   0.67403086  0.67315100  0.00026991
  -0.00592322 -0.00010304 -0.00000310
   1.00053464  0.32658976 -0.00026552
   0.32473408 -0.00034614 -0.00000217
   0.33281981  0.65908427 -0.00047209
   0.67402593  0.34125841  0.00047418
   0.11687371  0.22420857  0.94736596
   0.22416906  0.11704892  0.05184811
   0.10810392  0.55820099  0.94920173
   0.22532363  0.44115435  0.05241003
   0.10698310  0.88275274  0.94818274
   0.21574909  0.77365714  0.05071566
   0.44204132  0.22611416  0.94927983
   0.55858008  0.10806952  0.04975101
   0.44210929  0.54933334  0.94841525
   0.54987216  0.44167062  0.05085018
   0.45047290  0.89183079  0.95021989
   0.55787162  0.78384673  0.05156237
   0.77390737  0.21597991  0.94845555
   0.88245897  0.10755608  0.05319784
   0.78422329  0.55879726  0.94760675
   0.89281091  0.45062441  0.05154786
   0.77484641  0.89227927  0.94680891
   0.89264988  0.77565922  0.05258305
unknown system                          
           1
     8.271324    4.775807    0.000000
    -8.270305    4.774039    0.000000
     0.000000    0.000000   30.000000
   V    Mo   W    S 
   3   3   3  18
Direct configuration=     9
  -0.00769561  0.66844713  0.00011288
   0.68189388 -0.00016140 -0.00000071
   0.32387082  0.33150106 -0.00011395
   0.67483448  0.67387848  0.00026202
  -0.00519689  0.00012605 -0.00000358
   1.00087995  0.32565532 -0.00026284
   0.32196191 -0.00016821  0.00000499
   0.33303214  0.65736575 -0.00057019
   0.67554889  0.34279939  0.00057028
   0.11669085  0.22400741  0.94735580
   0.22393429  0.11721217  0.05195929
   0.10794429  0.55791959  0.94955781
   0.22528638  0.44092912  0.05239565
   0.10663544  0.88269358  0.94802934
   0.21572199  0.77359972  0.05041953
   0.44202355  0.22622578  0.94959935
   0.55838037  0.10796687  0.04913269
   0.44234076  0.54901679  0.94859437
   0.54989350  0.44190229  0.05047923
   0.45036786  0.89193380  0.95083791
   0.55789630  0.78379994  0.05139892
   0.77397257  0.21604179  0.94863935
   0.88270255  0.10749690  0.05323976
   0.78427764  0.55896050  0.94757349
   0.89328735  0.45082004  0.05138768
   0.77513384  0.89233146  0.94677881
   0.89259538  0.77591314  0.05262202
unknown system                          
           1
     8.272714    4.776529    0.000000
    -8.271174    4.773858    0.000000
     0.000000    0.000000   30.000000
   V    Mo   W    S 
   3   3   3  18
Direct configuration=    10
  -0.00814524  0.66866597  0.00012565
   0.68266273 -0.00014676  0.00000665
   0.32324930  0.33127577 -0.00013419
   0.67535831  0.67417774  0.00025911
  -0.00524730  0.00002142 -0.00000296
   1.00092689  0.32540092 -0.00026248
   0.32110037 -0.00030781  0.00000935
   0.33295242  0.65685776 -0.00059348
   0.67620768  0.34347113  0.00059370
   0.11654327  0.22387075  0.94721387
   0.22375078  0.11721234  0.05209471
   0.10781804  0.55777792  0.94955865
   0.22521278  0.44084320  0.05253426
   0.10641187  0.88262412  0.94789673
   0.21560178  0.77348830  0.05043308
   0.44205252  0.22629777  0.94959212
   0.55838603  0.10795478  0.04903999
   0.44250704  0.54899208  0.94852987
   0.54996986  0.44207937  0.05049160
   0.45041204  0.89196364  0.95091355
   0.55793776  0.78378765  0.05145943
   0.77401944  0.21604721  0.94856816
   0.88279024  0.10750200  0.05340925
   0.78436284  0.55908552  0.94743606
   0.89352828  0.45092922  0.05145862
   0.77521607  0.89232071  0.94660208
   0.89262865  0.77602175  0.05276651
unknown system                          
           1
     8.261167    4.770055    0.000000
    -8.260649    4.769156    0.000000
     0.000000    0.000000   30.000000
   V    Mo   W    S 
   3   3   3  18
Direct configuration=    11
  -0.00888977  0.66942091  0.00015306
   0.68420933 -0.00017102  0.00000343
   0.32178499  0.33054303 -0.00015989
   0.67605753  0.67476162  0.00025749
  -0.00484274  0.00005881 -0.00000430
   1.00106983  0.32474873 -0.00025905
   0.31902075 -0.00030485  0.00000917
   0.33311586  0.65564181 -0.00066707
   0.67752155  0.34471736  0.00066646
   0.11639501  0.22371264  0.94714414
   0.22359313  0.11731669  0.05223406
   0.10773447  0.55764086  0.94978892
   0.22517481  0.44071707  0.05258167
   0.10617207  0.88254711  0.94775619
   0.21557842  0.77345387  0.05024123
   0.44205497  0.22633895  0.94978289
   0.55822961  0.10788409  0.04862361
   0.44267244  0.54877531  0.94859856
   0.54999678  0.44220854  0.05027081
   0.45032667  0.89203328  0.95132892
   0.55793011  0.78377905  0.05138189
   0.77402816  0.21605994  0.94865720
   0.88294045  0.10746541  0.05347777
   0.78443121  0.55920033  0.94738478
   0.89388794  0.45111608  0.05137984
   0.77540651  0.89236001  0.94653908
   0.89261439  0.77618882  0.05282904
unknown system                          
           1
     8.281779    4.782048    0.000000
    -8.279496    4.778091    0.000000
     0.000000    0.000000   30.000000
   V    Mo   W    S 
   3   3   3  18
Direct configuration=    12
  -0.00824039  0.66861216  0.00013395
   0.68295962 -0.00014592  0.00000638
   0.32319149  0.33133631 -0.00014253
   0.67555372  0.67435550  0.00025632
  -0.00543312  0.00000603 -0.00000326
   1.00090677  0.32523332 -0.00025754
   0.32091216 -0.00036422  0.00000698
   0.33285534  0.65678367 -0.00060876
   0.67627062  0.34359608  0.00060629
   0.11647909  0.22382299  0.94720830
   0.22369385  0.11713101  0.05206531
   0.10780344  0.55767243  0.94956315
   0.22519571  0.44084277  0.05253249
   0.10643362  0.88269449  0.94791618
   0.21557729  0.77345240  0.05043186
   0.44207334  0.22631648  0.94961504
   0.55842422  0.10800112  0.04900042
   0.44253900  0.54908865  0.94856560
   0.55007176  0.44219048  0.05047809
   0.45041872  0.89192828  0.95094529
   0.55796084  0.78374200  0.05143771
   0.77407590  0.21608849  0.94858018
   0.88279964  0.10748486  0.05342455
   0.78435686  0.55908715  0.94742263
   0.89347355  0.45085268  0.05144199
   0.77524158  0.89234185  0.94658646
   0.89261981  0.77606339  0.05278682
unknown system                          
           1
     8.278646    4.780302    0.000000
    -8.275991    4.775701    0.000000
     0.000000    0.000000   30.000000
   V    Mo   W    S 
   3   3   3  18
Direct configuration=    13
  -0.00931365  0.66973325  0.00017093
   0.68517675 -0.00017170  0.00000564
   0.32101823  0.33023370 -0.00017845
   0.67657074  0.67514949  0.00024902
  -0.00484245  0.00004954 -0.00000304
   1.00111900  0.32434945 -0.00025034
   0.31794005 -0.00040538  0.00001258
   0.33305639  0.65499724 -0.00069065
   0.67824607  0.34546847  0.00068605
   0.11628328  0.22357620  0.94700375
   0.22344194  0.11739007  0.05238269
   0.10758240  0.55748262  0.94980772
   0.22513000  0.44061087  0.05271267
   0.10592723  0.88245121  0.94758781
   0.21546952  0.77334426  0.05024587
   0.44207303  0.22642034  0.94981016
   0.55821832  0.10782360  0.04845856
   0.44284543  0.54867245  0.94855047
   0.55001780  0.44237232  0.05024489
   0.45040486  0.89211809  0.95147542
   0.55798884  0.78382162  0.05141749
   0.77402434  0.21601376  0.94861176
   0.88299601  0.10742848  0.05364190
   0.78451361  0.55931895  0.94723003
   0.89418307  0.45125217  0.05145452
   0.77549255  0.89239114  0.94637198
   0.89265109  0.77632226  0.05299045
unknown system                          
           1
     8.275253    4.778413    0.000000
    -8.271628    4.772131    0.000000
     0.000000    0.000000   30.000000
   V    Mo   W    S 
   3   3   3  18
Direct configuration=    14
  -0.00965466  0.67006826  0.00018258
   0.68585458 -0.00018069  0.00000566
   0.32033804  0.32990244 -0.00019053
   0.67689143  0.67538922  0.00025040
  -0.00470459  0.00006052 -0.00000352
   1.00119184  0.32408880 -0.00025130
   0.31706728 -0.00043159  0.00001382
   0.33310936  0.65443471 -0.00072299
   0.67888067  0.34606919  0.00071648
   0.11620964  0.22350410  0.94696876
   0.22337559  0.11743916  0.05244797
   0.10755999  0.55743712  0.94990152
   0.22511083  0.44056167  0.05274377
   0.10580967  0.88240298  0.94751878
   0.21546058  0.77333805  0.05017090
   0.44207247  0.22642006  0.94989280
   0.55815107  0.10779588  0.04827711
   0.44291693  0.54857641  0.94857052
   0.55003796  0.44241581  0.05015217
   0.45037266  0.89215164  0.95165141
   0.55798691  0.78383009  0.05138827
   0.77401150  0.21600672  0.94864219
   0.88305998  0.10742264  0.05368192
   0.78454591  0.55937107  0.94719329
   0.89435025  0.45134808  0.05143796
   0.77556195  0.89239482  0.94633279
   0.89264661  0.77639730  0.05302716
unknown system                          
           1
     8.278016    4.779949    0.000000
    -8.274008    4.773006    0.000000
     0.000000    0.000000   30.000000
   V    Mo   W    S 
   3   3   3  18
Direct configuration=    15
  -0.01055977  0.67100544  0.00021019
   0.68757657 -0.00020292  0.00000607
   0.31852770  0.32897803 -0.00022059
   0.67768152  0.67597619  0.00025284
  -0.00424263  0.00007236 -0.00000535
   1.00137117  0.32344755 -0.00025334
   0.31474272 -0.00047776  0.00001741
   0.33332559  0.65296241 -0.00080366
   0.68058187  0.34762838  0.00079455
   0.11602105  0.22331764  0.94686788
   0.22320500  0.11759109  0.05264483
   0.10750210  0.55735649  0.95015480
   0.22505988  0.44042716  0.05283350
   0.10548501  0.88225327  0.94731955
   0.21544312  0.77332298  0.04996576
   0.44207403  0.22642174  0.95010425
   0.55795145  0.10770968  0.04780397
   0.44310521  0.54827925  0.94860733
   0.55005660  0.44249619  0.04991026
   0.45027149  0.89224734  0.95211440
   0.55796618  0.78385437  0.05132272
   0.77396716  0.21598562  0.94871568
   0.88323906  0.10741459  0.05378307
   0.78463671  0.55951534  0.94709732
   0.89483757  0.45164502  0.05139823
   0.77575034  0.89239836  0.94623375
   0.89263775  0.77658864  0.05312448
unknown system                          
           1
     8.293582    4.788869    0.000000
    -8.288877    4.780718    0.000000
     0.000000    0.000000   30.000000
   V    Mo   W    S 
   3   3   3  18
Direct configuration=    16
  -0.01088933  0.67134502  0.00021779
   0.68812766 -0.00020239  0.00000702
   0.31789276  0.32864175 -0.00023071
   0.67798663  0.67614327  0.00025065
  -0.00408492  0.00003452 -0.00000569
   1.00144067  0.32328407 -0.00025017
   0.31395561 -0.00053907  0.00001894
   0.33337290  0.65246495 -0.00082174
   0.68121090  0.34820679  0.00081178
   0.11593724  0.22323019  0.94680338
   0.22311896  0.11765843  0.05274239
   0.10745814  0.55733358  0.95022176
   0.22502801  0.44036718  0.05289720
   0.10532374  0.88217160  0.94722398
   0.21541997  0.77329777  0.04991489
   0.44208751  0.22643039  0.95015993
   0.55787756  0.10767507  0.04765398
   0.44319727  0.54815274  0.94858827
   0.55005146  0.44252784  0.04984979
   0.45024229  0.89228806  0.95225663
   0.55795514  0.78386276  0.05132315
   0.77394905  0.21597487  0.94871495
   0.88332354  0.10742802  0.05384759
   0.78468709  0.55958986  0.94703443
   0.89507005  0.45179147  0.05141665
   0.77582419  0.89238458  0.94616836
   0.89265038  0.77667116  0.05318469
unknown system                          
           1
     8.290532    4.787488    0.000000
    -8.283927    4.776046    0.000000
     0.000000    0.000000   30.000000
   V    Mo   W    S 
   3   3   3  18
Direct configuration=    17
  -0.01109151  0.67170893  0.00022424
   0.68869093 -0.00023254  0.00000399
   0.31733784  0.32828219 -0.00023347
   0.67815167  0.67640372  0.00024814
  -0.00390193  0.00008512 -0.00000620
   1.00143054  0.32297522 -0.00024530
   0.31322751 -0.00046228  0.00001479
   0.33354506  0.65204021 -0.00083180
   0.68165666  0.34858251  0.00082468
   0.11592949  0.22319902  0.94671624
   0.22311602  0.11779311  0.05285995
   0.10740039  0.55732675  0.95026687
   0.22502650  0.44032632  0.05296583
   0.10521928  0.88208661  0.94710930
   0.21541205  0.77327436  0.04988183
   0.44207582  0.22648117  0.95018080
   0.55784509  0.10757152  0.04753948
   0.44328688  0.54799773  0.94854779
   0.54995073  0.44251590  0.04980808
   0.45030051  0.89238297  0.95237906
   0.55797237  0.78395688  0.05134306
   0.77387964  0.21588415  0.94870848
   0.88330917  0.10739827  0.05392170
   0.78469079  0.55961135  0.94696632
   0.89527320  0.45189029  0.05144292
   0.77583853  0.89241670  0.94609997
   0.89264124  0.77671824  0.05326314
unknown system                          
           1
     8.297199    4.791220    0.000000
    -8.289455    4.777807    0.000000
     0.000000    0.000000   30.000000
   V    Mo   W    S 
   3   3   3  18
Direct configuration=    18
  -0.01223383  0.67295147  0.00024847
   0.69058867 -0.00025764  0.00000953
   0.31494177  0.32703517 -0.00026355
   0.67914000  0.67702840  0.00024875
  -0.00344324  0.00010825 -0.00000802
   1.00179355  0.32231298 -0.00025097
   0.31075134 -0.00051830  0.00003031
   0.33380728  0.65014230 -0.00091487
   0.68383402  0.35055730  0.00090167
   0.11560854  0.22289160  0.94658982
   0.22280765  0.11802672  0.05311080
   0.10740262  0.55733790  0.95061646
   0.22493740  0.44011422  0.05309737
   0.10464014  0.88181842  0.94684390
   0.21538034  0.77325677  0.04959433
   0.44208424  0.22645864  0.95048453
   0.55757661  0.10751935  0.04690338
   0.44351350  0.54748445  0.94856871
   0.54996724  0.44251807  0.04947245
   0.45011598  0.89246217  0.95299290
   0.55795371  0.78399004  0.05124717
   0.77381727  0.21585888  0.94881178
   0.88361797  0.10744796  0.05403878
   0.78483754  0.55985464  0.94681681
   0.89604341  0.45243767  0.05143048
   0.77609301  0.89234780  0.94597848
   0.89263772  0.77702922  0.05340043
unknown system                          
           1
     8.309332    4.798988    0.000000
    -8.297037    4.777691    0.000000
     0.000000    0.000000   30.000000
   V    Mo   W    S 
   3   3   3  18
Direct configuration=    19
  -0.01302761  0.67395904  0.00025186
   0.69185809 -0.00028339  0.00000940
   0.31319877  0.32602659 -0.00027127
   0.67991903  0.67750603  0.00023896
  -0.00319031  0.00007303 -0.00001029
   1.00206431  0.32182715 -0.00023811
   0.30903653 -0.00056170  0.00003125
   0.33404354  0.64881317 -0.00094715
   0.68540893  0.35196861  0.00093334
   0.11532178  0.22261192  0.94643648
   0.22254352  0.11824352  0.05333381
   0.10739688  0.55741232  0.95086510
   0.22484966  0.43993520  0.05324379
   0.10416667  0.88160210  0.94662713
   0.21533688  0.77320658  0.04939284
   0.44209872  0.22648371  0.95068735
   0.55740092  0.10747032  0.04645255
   0.44371954  0.54700496  0.94853581
   0.54989746  0.44245883  0.04923949
   0.45000578  0.89252091  0.95343448
   0.55795093  0.78403633  0.05119924
   0.77377474  0.21581265  0.94887004
   0.88386135  0.10751880  0.05415961
   0.78494785  0.56005646  0.94666860
   0.89673295  0.45292570  0.05145354
   0.77626757  0.89227747  0.94585806
   0.89262998  0.77730816  0.05354396
unknown system                          
           1
     8.327849    4.808542    0.000000
    -8.316304    4.788548    0.000000
     0.000000    0.000000   30.000000
   V    Mo   W    S 
   3   3   3  18
Direct configuration=    20
  -0.01618793  0.67839637  0.00023284
   0.69680317 -0.00040542  0.00002378
   0.30546651  0.32146685 -0.00026866
   0.68329040  0.67944857  0.00014924
  -0.00237905  0.00021947 -0.00001400
   1.00371812  0.31980336 -0.00015776
   0.30224155 -0.00052207  0.00006775
   0.33511934  0.64285281 -0.00106175
   0.69214817  0.35795110  0.00103790
   0.11379562  0.22114782  0.94578930
   0.22114852  0.11909493  0.05420353
   0.10754645  0.55793802  0.95206853
   0.22443422  0.43899903  0.05388246
   0.10193140  0.88077994  0.94571346
   0.21515873  0.77299339  0.04843310
   0.44212671  0.22661593  0.95167458
   0.55667957  0.10750003  0.04441093
   0.44452898  0.54454096  0.94847343
   0.54949680  0.44196685  0.04807781
   0.44932534  0.89254766  0.95543097
   0.55804059  0.78410603  0.05092669
   0.77378695  0.21577444  0.94919337
   0.88506403  0.10795290  0.05464898
   0.78542629  0.56105072  0.94596436
   0.89999439  0.45537047  0.05151434
   0.77701019  0.89178827  0.94535520
   0.89249938  0.77883601  0.05422951
unknown system                          
           1
     8.319871    4.804320    0.000000
    -8.308894    4.785309    0.000000
     0.000000    0.000000   30.000000
   V    Mo   W    S 
   3   3   3  18
Direct configuration=    21
  -0.01622376  0.67880936  0.00016118
   0.69662153 -0.00044790  0.00001230
   0.30515506  0.32107698 -0.00019837
   0.68388592  0.67962195  0.00010324
  -0.00287408  0.00008236 -0.00001840
   1.00407629  0.31973841 -0.00008822
   0.30207554 -0.00058347  0.00002763
   0.33521958  0.64253250 -0.00095371
   0.69265766  0.35839564  0.00094071
   0.11324991  0.22066870  0.94556268
   0.22071451  0.11916814  0.05435338
   0.10759764  0.55822709  0.95224539
   0.22433035  0.43880862  0.05406945
   0.10154550  0.88078296  0.94562085
   0.21512033  0.77293452  0.04832583
   0.44212967  0.22666610  0.95177475
   0.55673693  0.10773316  0.04422339
   0.44463637  0.54378841  0.94839400
   0.54924465  0.44168630  0.04790819
   0.44912955  0.89229672  0.95563049
   0.55813057  0.78399797  0.05091048
   0.77401459  0.21586609  0.94921961
   0.88528224  0.10813898  0.05476082
   0.78552506  0.56123382  0.94581204
   0.90076289  0.45606109  0.05155605
   0.77706548  0.89164998  0.94525409
   0.89240447  0.77927999  0.05439205
unknown system                          
           1
     8.324268    4.806899    0.000000
    -8.313737    4.788658    0.000000
     0.000000    0.000000   30.000000
   V    Mo   W    S 
   3   3   3  18
Direct configuration=    22
  -0.01654913  0.67935954  0.00015187
   0.69696635 -0.00047676  0.00001840
   0.30422364  0.32048742 -0.00018989
   0.68442119  0.67985354  0.00006991
  -0.00298670  0.00010376 -0.00001667
   1.00443749  0.31951410 -0.00006905
   0.30134721 -0.00052170  0.00004669
   0.33544012  0.64170966 -0.00095829
   0.69359889  0.35916897  0.00094199
   0.11290385  0.22038690  0.94551892
   0.22039840  0.11909693  0.05438633
   0.10772545  0.55840656  0.95248360
   0.22430441  0.43867925  0.05415015
   0.10127480  0.88082973  0.94556972
   0.21513962  0.77295854  0.04815979
   0.44212398  0.22663973  0.95193324
   0.55673586  0.10793871  0.04395284
   0.44460700  0.54334660  0.94846785
   0.54919118  0.44152043  0.04767605
   0.44891399  0.89209197  0.95589496
   0.55819830  0.78389956  0.05084258
   0.77417925  0.21597629  0.94929998
   0.88540136  0.10825034  0.05478248
   0.78562198  0.56137915  0.94572758
   0.90118253  0.45651500  0.05148628
   0.77707270  0.89152705  0.94522681
   0.89234075  0.77957321  0.05444579
unknown system                          
           1
     8.332001    4.811277    0.000000
    -8.322762    4.795276    0.000000
     0.000000    0.000000   30.000000
   V    Mo   W    S 
   3   3   3  18
Direct configuration=    23
  -0.01679907  0.67991505  0.00012815
   0.69719664 -0.00050439  0.00002285
   0.30339497  0.31991560 -0.00016965
   0.68497403  0.68008981  0.00002774
  -0.00324055  0.00010165 -0.00001807
   1.00479654  0.31930607 -0.00003182
   0.30074868 -0.00047955  0.00005026
   0.33565518  0.64098635 -0.00090610
   0.69445957  0.35986009  0.00089322
   0.11250259  0.22005429  0.94542894
   0.22001843  0.11902637  0.05446388
   0.10782805  0.55863353  0.95270893
   0.22428494  0.43853071  0.05428118
   0.10097448  0.88089268  0.94549337
   0.21517732  0.77296268  0.04802483
   0.44214785  0.22662871  0.95205840
   0.55677866  0.10818273  0.04372068
   0.44461083  0.54277151  0.94849162
   0.54906619  0.44130820  0.04745726
   0.44869608  0.89184305  0.95612562
   0.55829798  0.78379098  0.05080383
   0.77438624  0.21608610  0.94935114
   0.88547046  0.10838700  0.05483408
   0.78575352  0.56154011  0.94559717
   0.90175022  0.45708836  0.05145756
   0.77701329  0.89139374  0.94516816
   0.89227134  0.77990303  0.05453666
unknown system                          
           1
     8.341684    4.816488    0.000000
    -8.333931    4.803062    0.000000
     0.000000    0.000000   30.000000
   V    Mo   W    S 
   3   3   3  18
Direct configuration=    24
  -0.01775805  0.68163174  0.00002758
   0.69782159 -0.00062263  0.00003216
   0.30038064  0.31806736 -0.00006597
   0.68656068  0.68063423 -0.00011951
  -0.00402448  0.00036038 -0.00001977
   1.00624330  0.31882721  0.00011905
   0.29884673 -0.00016826  0.00003114
   0.33642599  0.63836017 -0.00071122
   0.69749617  0.36225265  0.00071607
   0.11126638  0.21900285  0.94519309
   0.21871027  0.11878396  0.05467029
   0.10835115  0.55936286  0.95353519
   0.22424319  0.43790207  0.05466944
   0.10008754  0.88126159  0.94528490
   0.21553674  0.77311817  0.04753982
   0.44223746  0.22651596  0.95252729
   0.55697120  0.10918301  0.04293307
   0.44456704  0.54076633  0.94862185
   0.54868904  0.44053454  0.04661231
   0.44781285  0.89080828  0.95692895