       N       E                     dE             d eps       ncg     rms          rms(c)
DAV:   1     0.112445004177E+04    0.11245E+04   -0.35856E+04  8160   0.577E+02
DAV:   2    -0.450242305963E+01   -0.11290E+04   -0.10890E+04 11200   0.173E+02
DAV:   3    -0.200106043420E+03   -0.19560E+03   -0.18794E+03 10960   0.818E+01
DAV:   4    -0.209021713836E+03   -0.89157E+01   -0.86379E+01 12040   0.257E+01
DAV:   5    -0.209349494935E+03   -0.32778E+00   -0.32691E+00 11440   0.365E+00    0.275E+01
DAV:   6    -0.236560456197E+03   -0.27211E+02   -0.10031E+02 12880   0.596E+01    0.595E+01
DAV:   7    -0.196085142572E+03    0.40475E+02   -0.16748E+02 12480   0.146E+02    0.198E+01
DAV:   8    -0.189217309757E+03    0.68678E+01   -0.16356E+01 12200   0.123E+01    0.118E+01
DAV:   9    -0.188013106746E+03    0.12042E+01   -0.29918E+00 13440   0.661E+00    0.824E+00
DAV:  10    -0.187021834744E+03    0.99127E+00   -0.14380E+00 13240   0.676E+00    0.201E+00
DAV:  11    -0.187219264329E+03   -0.19743E+00   -0.80613E-01 13240   0.455E+00    0.479E+00
DAV:  12    -0.187060032372E+03    0.15923E+00   -0.39307E-01 12200   0.412E+00    0.344E+00
DAV:  13    -0.186941154308E+03    0.11888E+00   -0.20787E-01 12440   0.288E+00    0.121E+00
DAV:  14    -0.186934548992E+03    0.66053E-02   -0.46512E-02 13000   0.116E+00    0.103E+00
DAV:  15    -0.186928141755E+03    0.64072E-02   -0.15047E-02 13520   0.624E-01    0.591E-01
DAV:  16    -0.186923930771E+03    0.42110E-02   -0.88308E-03 13040   0.400E-01    0.168E-01
DAV:  17    -0.186923684375E+03    0.24640E-03   -0.34313E-03 12040   0.165E-01    0.205E-01
DAV:  18    -0.186923149417E+03    0.53496E-03   -0.15828E-03 12600   0.176E-01    0.861E-02
DAV:  19    -0.186923552451E+03   -0.40303E-03   -0.74135E-04 10640   0.791E-02    0.941E-02
DAV:  20    -0.186924101553E+03   -0.54910E-03   -0.64270E-04  9680   0.843E-02    0.791E-02
DAV:  21    -0.186925249125E+03   -0.11476E-02   -0.35520E-04  9120   0.750E-02    0.241E-02
DAV:  22    -0.186926133326E+03   -0.88420E-03   -0.92198E-05  7000   0.268E-02    0.276E-02
DAV:  23    -0.186926853806E+03   -0.72048E-03   -0.63010E-05  7840   0.231E-02    0.144E-02
DAV:  24    -0.186927530355E+03   -0.67655E-03   -0.41865E-05  7040   0.200E-02    0.100E-02
DAV:  25    -0.186927906047E+03   -0.37569E-03   -0.11317E-05  6200   0.139E-02    0.526E-03
DAV:  26    -0.186928118117E+03   -0.21207E-03   -0.76256E-06  6800   0.800E-03    0.291E-03
DAV:  27    -0.186928203614E+03   -0.85496E-04   -0.31307E-06  7160   0.558E-03
   1 F= -.18692820E+03 E0= -.18675598E+03  d E =-.186928E+03
       N       E                     dE             d eps       ncg     rms          rms(c)
DAV:   1    -0.187487609060E+03   -0.55949E+00   -0.26699E+02  8160   0.346E+01    0.463E+00
DAV:   2    -0.189404051773E+03   -0.19164E+01   -0.20559E+01 12920   0.154E+01    0.883E+00
DAV:   3    -0.189395228124E+03    0.88236E-02   -0.40606E+00 12320   0.117E+01    0.701E+00
DAV:   4    -0.188763673520E+03    0.63155E+00   -0.60203E-01 12120   0.457E+00    0.173E+00
DAV:   5    -0.188773524705E+03   -0.98512E-02   -0.31839E-01 10160   0.155E+00    0.236E+00
DAV:   6    -0.188716952478E+03    0.56572E-01   -0.30106E-01 12160   0.221E+00    0.203E+00
DAV:   7    -0.188721664419E+03   -0.47119E-02   -0.17718E-01 12200   0.262E+00    0.234E+00
DAV:   8    -0.188677764090E+03    0.43900E-01   -0.81868E-02 12880   0.153E+00    0.376E-01
DAV:   9    -0.188675756525E+03    0.20076E-02   -0.67782E-03 10600   0.283E-01    0.200E-01
DAV:  10    -0.188677124621E+03   -0.13681E-02   -0.45608E-03 13520   0.394E-01    0.481E-01
DAV:  11    -0.188675335469E+03    0.17892E-02   -0.36232E-03 12560   0.354E-01    0.107E-01
DAV:  12    -0.188675449935E+03   -0.11447E-03   -0.64799E-04 11360   0.976E-02    0.796E-02
DAV:  13    -0.188675381632E+03    0.68302E-04   -0.19425E-04  8000   0.467E-02
   2 F= -.18867538E+03 E0= -.18853343E+03  d E =-.174718E+01
       N       E                     dE             d eps       ncg     rms          rms(c)
DAV:   1    -0.190573860968E+03   -0.18984E+01   -0.30372E+01  8880   0.141E+01    0.447E+00
DAV:   2    -0.190675347946E+03   -0.10149E+00   -0.29226E+00 11360   0.101E+01    0.807E+00
DAV:   3    -0.190029061542E+03    0.64629E+00   -0.13790E+00 12280   0.857E+00    0.392E+00
DAV:   4    -0.189846481293E+03    0.18258E+00   -0.66519E-01 12280   0.364E+00    0.250E+00
DAV:   5    -0.189768032599E+03    0.78449E-01   -0.28892E-01 12000   0.196E+00    0.120E+00
DAV:   6    -0.189749691799E+03    0.18341E-01   -0.60802E-02 11880   0.138E+00    0.862E-01
DAV:   7    -0.189743936132E+03    0.57557E-02   -0.14661E-02 11480   0.715E-01    0.201E-01
DAV:   8    -0.189743971340E+03   -0.35208E-04   -0.21058E-03 12320   0.164E-01    0.147E-01
DAV:   9    -0.189744112284E+03   -0.14094E-03   -0.10785E-03 10680   0.145E-01    0.153E-01
DAV:  10    -0.189744610224E+03   -0.49794E-03   -0.14569E-03 10400   0.266E-01    0.261E-01
DAV:  11    -0.189743973246E+03    0.63698E-03   -0.85605E-04  9120   0.195E-01    0.219E-02
DAV:  12    -0.189743996916E+03   -0.23670E-04   -0.66669E-05  5720   0.280E-02
   3 F= -.18974400E+03 E0= -.18962431E+03  d E =-.106862E+01
       N       E                     dE             d eps       ncg     rms          rms(c)
DAV:   1    -0.191236303515E+03   -0.14923E+01   -0.63102E+01  8160   0.182E+01    0.464E+00
DAV:   2    -0.191350999116E+03   -0.11470E+00   -0.55885E+00 13600   0.100E+01    0.683E+00
DAV:   3    -0.191001159934E+03    0.34984E+00   -0.16822E+00 12040   0.922E+00    0.493E+00
DAV:   4    -0.190759351010E+03    0.24181E+00   -0.86774E-01 12280   0.506E+00    0.256E+00
DAV:   5    -0.190666880075E+03    0.92471E-01   -0.27715E-01 12160   0.209E+00    0.123E+00
DAV:   6    -0.190657316410E+03    0.95637E-02   -0.10654E-01 11720   0.199E+00    0.143E+00
DAV:   7    -0.190643571561E+03    0.13745E-01   -0.52389E-02 11400   0.159E+00    0.599E-01
DAV:   8    -0.190638734616E+03    0.48369E-02   -0.67677E-03 12200   0.471E-01    0.118E-01
DAV:   9    -0.190639297566E+03   -0.56295E-03   -0.19502E-03 10840   0.152E-01    0.153E-01
DAV:  10    -0.190639124680E+03    0.17289E-03   -0.90823E-04 10640   0.191E-01    0.117E-01
DAV:  11    -0.190639045685E+03    0.78996E-04   -0.32078E-04  7840   0.124E-01
   4 F= -.19063905E+03 E0= -.19053883E+03  d E =-.895049E+00
       N       E                     dE             d eps       ncg     rms          rms(c)
DAV:   1    -0.191939664989E+03   -0.13005E+01   -0.11431E+02  8160   0.242E+01    0.569E+00
DAV:   2    -0.192054649569E+03   -0.11498E+00   -0.93612E+00 13560   0.118E+01    0.707E+00
DAV:   3    -0.191733136023E+03    0.32151E+00   -0.23323E+00 11760   0.113E+01    0.628E+00
DAV:   4    -0.191363287158E+03    0.36985E+00   -0.13662E+00 12240   0.751E+00    0.316E+00
DAV:   5    -0.191205731540E+03    0.15756E+00   -0.42977E-01 12600   0.313E+00    0.159E+00
DAV:   6    -0.191202886637E+03    0.28449E-02   -0.18779E-01 12560   0.303E+00    0.196E+00
DAV:   7    -0.191169592465E+03    0.33294E-01   -0.88401E-02 12400   0.214E+00    0.549E-01
DAV:   8    -0.191164365531E+03    0.52269E-02   -0.90722E-03 11200   0.467E-01    0.148E-01
DAV:   9    -0.191165221977E+03   -0.85645E-03   -0.33508E-03 11360   0.255E-01    0.224E-01
DAV:  10    -0.191164843182E+03    0.37879E-03   -0.13812E-03 10400   0.275E-01    0.102E-01
DAV:  11    -0.191164773647E+03    0.69535E-04   -0.25771E-04  6960   0.993E-02
   5 F= -.19116477E+03 E0= -.19107389E+03  d E =-.525728E+00
       N       E                     dE             d eps       ncg     rms          rms(c)
DAV:   1    -0.191205034960E+03   -0.40192E-01   -0.36029E+00  8160   0.406E+00    0.521E-01
DAV:   2    -0.191217067924E+03   -0.12033E-01   -0.14425E-01 13200   0.127E+00    0.726E-01
DAV:   3    -0.191213618793E+03    0.34491E-02   -0.30688E-02 12440   0.122E+00    0.688E-01
DAV:   4    -0.191209618739E+03    0.40001E-02   -0.12057E-02 11280   0.806E-01    0.310E-01
DAV:   5    -0.191208193087E+03    0.14257E-02   -0.37634E-03 10200   0.379E-01    0.201E-01
DAV:   6    -0.191208431896E+03   -0.23881E-03   -0.25096E-03 12200   0.379E-01    0.233E-01
DAV:   7    -0.191207802456E+03    0.62944E-03   -0.94895E-04 10360   0.221E-01    0.343E-02
DAV:   8    -0.191207837160E+03   -0.34703E-04   -0.10815E-04  6160   0.657E-02
   6 F= -.19120784E+03 E0= -.19111434E+03  d E =-.430635E-01
       N       E                     dE             d eps       ncg     rms          rms(c)
DAV:   1    -0.191220010295E+03   -0.12208E-01   -0.32269E-01  8160   0.122E+00    0.173E-01
DAV:   2    -0.191220798160E+03   -0.78786E-03   -0.12415E-02 11640   0.366E-01    0.222E-01
DAV:   3    -0.191220746251E+03    0.51909E-04   -0.30856E-03 12480   0.409E-01    0.245E-01
DAV:   4    -0.191220172130E+03    0.57412E-03   -0.13708E-03  9880   0.274E-01    0.993E-02
DAV:   5    -0.191220099248E+03    0.72882E-04   -0.48941E-04  9040   0.140E-01
   7 F= -.19122010E+03 E0= -.19112553E+03  d E =-.122621E-01
       N       E                     dE             d eps       ncg     rms          rms(c)
DAV:   1    -0.191218957996E+03    0.12141E-02   -0.99894E-01  8160   0.238E+00    0.583E-01
DAV:   2    -0.191216594153E+03    0.23638E-02   -0.71975E-02 12440   0.102E+00    0.718E-01
DAV:   3    -0.191216968794E+03   -0.37464E-03   -0.31085E-02 11720   0.135E+00    0.801E-01
DAV:   4    -0.191210288876E+03    0.66799E-02   -0.15682E-02 11440   0.911E-01    0.344E-01
DAV:   5    -0.191210471927E+03   -0.18305E-03   -0.75020E-03 10440   0.624E-01    0.409E-01
DAV:   6    -0.191208417809E+03    0.20541E-02   -0.33420E-03 11960   0.411E-01    0.671E-02
DAV:   7    -0.191208484533E+03   -0.66725E-04   -0.42843E-04  9640   0.101E-01
   8 F= -.19120848E+03 E0= -.19111556E+03  d E =0.116147E-01
       N       E                     dE             d eps       ncg     rms          rms(c)
DAV:   1    -0.191289121715E+03   -0.80704E-01   -0.65983E+00  8160   0.567E+00    0.952E-01
DAV:   2    -0.191298066955E+03   -0.89452E-02   -0.25762E-01 12920   0.197E+00    0.136E+00
DAV:   3    -0.191289819281E+03    0.82477E-02   -0.88685E-02 12200   0.226E+00    0.114E+00
DAV:   4    -0.191276352296E+03    0.13467E-01   -0.36728E-02 12320   0.135E+00    0.604E-01
DAV:   5    -0.191276106287E+03    0.24601E-03   -0.21887E-02 10800   0.103E+00    0.731E-01
DAV:   6    -0.191270677833E+03    0.54285E-02   -0.12903E-02 11880   0.795E-01    0.211E-01
DAV:   7    -0.191270114442E+03    0.56339E-03   -0.21439E-03 10800   0.233E-01    0.809E-02
DAV:   8    -0.191270165385E+03   -0.50943E-04   -0.64200E-04 11200   0.168E-01
   9 F= -.19127017E+03 E0= -.19117283E+03  d E =-.616809E-01
       N       E                     dE             d eps       ncg     rms          rms(c)
DAV:   1    -0.191291682122E+03   -0.21568E-01   -0.72627E-01  8160   0.185E+00    0.282E-01
DAV:   2    -0.191293558223E+03   -0.18761E-02   -0.31391E-02 12720   0.650E-01    0.413E-01
DAV:   3    -0.191292460126E+03    0.10981E-02   -0.79313E-03 11840   0.642E-01    0.322E-01
DAV:   4    -0.191291637459E+03    0.82267E-03   -0.34250E-03 10760   0.396E-01    0.196E-01
DAV:   5    -0.191291367659E+03    0.26980E-03   -0.18064E-03  9760   0.305E-01    0.183E-01
DAV:   6    -0.191291058465E+03    0.30919E-03   -0.92865E-04  9760   0.223E-01    0.724E-02
DAV:   7    -0.191290999327E+03    0.59138E-04   -0.14030E-04  6080   0.748E-02
  10 F= -.19129100E+03 E0= -.19119330E+03  d E =-.208339E-01
       N       E                     dE             d eps       ncg     rms          rms(c)
DAV:   1    -0.191340734745E+03   -0.49676E-01   -0.30329E+00  8160   0.369E+00    0.387E-01
DAV:   2    -0.191349731666E+03   -0.89969E-02   -0.81243E-02 13560   0.104E+00    0.686E-01
DAV:   3    -0.191346115973E+03    0.36157E-02   -0.19856E-02 12120   0.103E+00    0.480E-01
DAV:   4    -0.191343964777E+03    0.21512E-02   -0.56241E-03 11400   0.513E-01    0.197E-01
DAV:   5    -0.191343566958E+03    0.39782E-03   -0.19478E-03 11680   0.288E-01    0.183E-01
DAV:   6    -0.191343497758E+03    0.69201E-04   -0.13612E-03 11200   0.284E-01    0.143E-01
DAV:   7    -0.191343249359E+03    0.24840E-03   -0.41966E-04  8280   0.138E-01    0.282E-02
DAV:   8    -0.191343250843E+03   -0.14845E-05   -0.67698E-05  6160   0.435E-02
  11 F= -.19134325E+03 E0= -.19124574E+03  d E =-.522515E-01
       N       E                     dE             d eps       ncg     rms          rms(c)
DAV:   1    -0.191293783299E+03    0.49466E-01   -0.26825E+00  8160   0.352E+00    0.439E-01
DAV:   2    -0.191299705502E+03   -0.59222E-02   -0.79536E-02 13320   0.102E+00    0.646E-01
DAV:   3    -0.191297842528E+03    0.18630E-02   -0.21017E-02 11880   0.109E+00    0.591E-01
DAV:   4    -0.191294328991E+03    0.35135E-02   -0.84434E-03 11520   0.638E-01    0.215E-01
DAV:   5    -0.191293885234E+03    0.44376E-03   -0.27914E-03 11360   0.311E-01    0.205E-01
DAV:   6    -0.191293697599E+03    0.18764E-03   -0.18471E-03 11760   0.319E-01    0.160E-01
DAV:   7    -0.191293408593E+03    0.28901E-03   -0.61791E-04  9800   0.167E-01    0.368E-02
DAV:   8    -0.191293394109E+03    0.14484E-04   -0.75560E-05  6480   0.383E-02
  12 F= -.19129339E+03 E0= -.19119584E+03  d E =0.498567E-01
       N       E                     dE             d eps       ncg     rms          rms(c)
DAV:   1    -0.191375949129E+03   -0.82541E-01   -0.65602E+00  8160   0.556E+00    0.727E-01
DAV:   2    -0.191388846219E+03   -0.12897E-01   -0.21043E-01 13560   0.163E+00    0.988E-01
DAV:   3    -0.191386052997E+03    0.27932E-02   -0.54721E-02 11400   0.174E+00    0.932E-01
DAV:   4    -0.191376440386E+03    0.96126E-02   -0.21097E-02 11920   0.105E+00    0.395E-01
DAV:   5    -0.191376112677E+03    0.32771E-03   -0.10271E-02 11200   0.687E-01    0.482E-01
DAV:   6    -0.191374043336E+03    0.20693E-02   -0.67911E-03 11520   0.597E-01    0.204E-01
DAV:   7    -0.191373476542E+03    0.56679E-03   -0.15064E-03 10880   0.213E-01    0.534E-02
DAV:   8    -0.191373416727E+03    0.59815E-04   -0.22017E-04  8600   0.585E-02
  13 F= -.19137342E+03 E0= -.19127627E+03  d E =-.800226E-01
       N       E                     dE             d eps       ncg     rms          rms(c)
DAV:   1    -0.191399207708E+03   -0.25731E-01   -0.58944E-01  8160   0.164E+00    0.194E-01
DAV:   2    -0.191401681954E+03   -0.24742E-02   -0.19247E-02 12800   0.623E-01    0.415E-01
DAV:   3    -0.191399915551E+03    0.17664E-02   -0.42829E-03 11800   0.500E-01    0.160E-01
DAV:   4    -0.191399760582E+03    0.15497E-03   -0.10714E-03  9720   0.215E-01    0.128E-01
DAV:   5    -0.191399710086E+03    0.50496E-04   -0.81006E-04 10080   0.216E-01
  14 F= -.19139971E+03 E0= -.19130388E+03  d E =-.262934E-01
       N       E                     dE             d eps       ncg     rms          rms(c)
DAV:   1    -0.191466281449E+03   -0.66521E-01   -0.40781E+00  8160   0.430E+00    0.448E-01
DAV:   2    -0.191478478000E+03   -0.12197E-01   -0.10980E-01 13520   0.135E+00    0.841E-01
DAV:   3    -0.191471802754E+03    0.66752E-02   -0.20723E-02 12160   0.111E+00    0.403E-01
DAV:   4    -0.191470474103E+03    0.13287E-02   -0.54232E-03 11120   0.509E-01    0.281E-01
DAV:   5    -0.191470265356E+03    0.20875E-03   -0.40576E-03 10120   0.487E-01    0.284E-01
DAV:   6    -0.191469604358E+03    0.66100E-03   -0.21124E-03 12600   0.321E-01    0.106E-01
DAV:   7    -0.191469377305E+03    0.22705E-03   -0.48607E-04  9480   0.100E-01    0.240E-02
DAV:   8    -0.191469380374E+03   -0.30695E-05   -0.67862E-05  6880   0.275E-02
  15 F= -.19146938E+03 E0= -.19137758E+03  d E =-.696703E-01
       N       E                     dE             d eps       ncg     rms          rms(c)
DAV:   1    -0.191494728817E+03   -0.25352E-01   -0.48260E-01  8160   0.149E+00    0.159E-01
DAV:   2    -0.191495980554E+03   -0.12517E-02   -0.14211E-02 13520   0.413E-01    0.247E-01
DAV:   3    -0.191495686044E+03    0.29451E-03   -0.29160E-03 11360   0.412E-01    0.202E-01
DAV:   4    -0.191495231459E+03    0.45458E-03   -0.81356E-04  9200   0.207E-01    0.622E-02
DAV:   5    -0.191495196162E+03    0.35297E-04   -0.22689E-04  6080   0.809E-02
  16 F= -.19149520E+03 E0= -.19140497E+03  d E =-.258158E-01
       N       E                     dE             d eps       ncg     rms          rms(c)
DAV:   1    -0.191524099214E+03   -0.28868E-01   -0.64482E-01  8160   0.184E+00    0.416E-01
DAV:   2    -0.191528170001E+03   -0.40708E-02   -0.39884E-02 11400   0.116E+00    0.842E-01
DAV:   3    -0.191520969782E+03    0.72002E-02   -0.15912E-02 11360   0.103E+00    0.285E-01
DAV:   4    -0.191519713619E+03    0.12562E-02   -0.33766E-03 12240   0.313E-01    0.183E-01
DAV:   5    -0.191520067311E+03   -0.35369E-03   -0.32727E-03 11320   0.402E-01    0.304E-01
DAV:   6    -0.191519020818E+03    0.10465E-02   -0.18876E-03 10760   0.334E-01    0.519E-02
DAV:   7    -0.191519014561E+03    0.62568E-05   -0.12955E-04  5600   0.616E-02
  17 F= -.19151901E+03 E0= -.19143001E+03  d E =-.238184E-01
       N       E                     dE             d eps       ncg     rms          rms(c)
DAV:   1    -0.191603784926E+03   -0.84764E-01   -0.60836E+00  8160   0.525E+00    0.548E-01
DAV:   2    -0.191625866229E+03   -0.22081E-01   -0.18371E-01 12560   0.178E+00    0.109E+00
DAV:   3    -0.191613912009E+03    0.11954E-01   -0.33965E-02 12200   0.146E+00    0.481E-01
DAV:   4    -0.191611838700E+03    0.20733E-02   -0.72234E-03 11080   0.619E-01    0.322E-01
DAV:   5    -0.191611467277E+03    0.37142E-03   -0.47479E-03 10120   0.561E-01    0.315E-01
DAV:   6    -0.191610638685E+03    0.82859E-03   -0.26245E-03 12720   0.365E-01    0.124E-01
DAV:   7    -0.191610332345E+03    0.30634E-03   -0.74906E-04  9520   0.125E-01    0.440E-02
DAV:   8    -0.191610343517E+03   -0.11171E-04   -0.15188E-04  6600   0.903E-02
  18 F= -.19161034E+03 E0= -.19152731E+03  d E =-.913290E-01
       N       E                     dE             d eps       ncg     rms          rms(c)
DAV:   1    -0.191670929437E+03   -0.60597E-01   -0.31945E+00  8160   0.384E+00    0.397E-01
DAV:   2    -0.191678909831E+03   -0.79804E-02   -0.97154E-02 12160   0.982E-01    0.543E-01
DAV:   3    -0.191678306878E+03    0.60295E-03   -0.16498E-02 12400   0.101E+00    0.519E-01
DAV:   4    -0.191675120401E+03    0.31865E-02   -0.46663E-03 11240   0.540E-01    0.143E-01
DAV:   5    -0.191675167030E+03   -0.46630E-04   -0.16658E-03 12360   0.266E-01    0.183E-01
DAV:   6    -0.191675048336E+03    0.11869E-03   -0.13398E-03 10880   0.305E-01    0.147E-01
DAV:   7    -0.191674739745E+03    0.30859E-03   -0.43457E-04  8360   0.159E-01    0.258E-02
DAV:   8    -0.191674745055E+03   -0.53102E-05   -0.70132E-05  6080   0.351E-02
  19 F= -.19167475E+03 E0= -.19159472E+03  d E =-.644015E-01
       N       E                     dE             d eps       ncg     rms          rms(c)
DAV:   1    -0.191793074276E+03   -0.11833E+00   -0.59817E+01  8160   0.166E+01    0.162E+00
DAV:   2    -0.191968614697E+03   -0.17554E+00   -0.19314E+00 11920   0.430E+00    0.228E+00
DAV:   3    -0.191941442044E+03    0.27173E-01   -0.26954E-01 12360   0.408E+00    0.186E+00
DAV:   4    -0.191898507628E+03    0.42934E-01   -0.67852E-02 12240   0.213E+00    0.652E-01
DAV:   5    -0.191900463046E+03   -0.19554E-02   -0.28378E-02 12400   0.140E+00    0.865E-01
DAV:   6    -0.191893922941E+03    0.65401E-02   -0.20748E-02 12720   0.120E+00    0.425E-01
DAV:   7    -0.191890455135E+03    0.34678E-02   -0.65619E-03 11720   0.456E-01    0.972E-02
DAV:   8    -0.191890559413E+03   -0.10428E-03   -0.12638E-03 11760   0.191E-01    0.125E-01
DAV:   9    -0.191890429615E+03    0.12980E-03   -0.71626E-04 10440   0.213E-01    0.920E-02
DAV:  10    -0.191890302738E+03    0.12688E-03   -0.22853E-04  6840   0.105E-01    0.200E-02
DAV:  11    -0.191890324053E+03   -0.21315E-04   -0.95125E-05  6640   0.324E-02
  20 F= -.19189032E+03 E0= -.19181238E+03  d E =-.215579E+00
       N       E                     dE             d eps       ncg     rms          rms(c)
DAV:   1    -0.191914176328E+03   -0.23874E-01   -0.12173E+00  8160   0.248E+00    0.508E-01
DAV:   2    -0.191918357535E+03   -0.41812E-02   -0.85244E-02 11680   0.130E+00    0.751E-01
DAV:   3    -0.191913770533E+03    0.45870E-02   -0.18786E-02 11320   0.121E+00    0.436E-01
DAV:   4    -0.191910920835E+03    0.28497E-02   -0.54755E-03 12320   0.560E-01    0.235E-01
DAV:   5    -0.191911373283E+03   -0.45245E-03   -0.45160E-03 11560   0.518E-01    0.350E-01
DAV:   6    -0.191909897189E+03    0.14761E-02   -0.25693E-03 11680   0.421E-01    0.645E-02
DAV:   7    -0.191909896620E+03    0.56864E-06   -0.25219E-04  7200   0.976E-02
  21 F= -.19190990E+03 E0= -.19183030E+03  d E =-.195726E-01
       N       E                     dE             d eps       ncg     rms          rms(c)
DAV:   1    -0.191928774188E+03   -0.18877E-01   -0.11884E+00  8160   0.232E+00    0.302E-01
DAV:   2    -0.191935798352E+03   -0.70242E-02   -0.55184E-02 10680   0.117E+00    0.649E-01
DAV:   3    -0.191930961690E+03    0.48367E-02   -0.10515E-02 12240   0.832E-01    0.194E-01
DAV:   4    -0.191930575408E+03    0.38628E-03   -0.15547E-03 11280   0.290E-01    0.169E-01
DAV:   5    -0.191930600463E+03   -0.25055E-04   -0.13055E-03 10240   0.320E-01    0.184E-01
DAV:   6    -0.191930204020E+03    0.39644E-03   -0.81002E-04 11480   0.203E-01    0.400E-02
DAV:   7    -0.191930190103E+03    0.13917E-04   -0.12379E-04  6040   0.530E-02
  22 F= -.19193019E+03 E0= -.19185054E+03  d E =-.202935E-01
       N       E                     dE             d eps       ncg     rms          rms(c)
DAV:   1    -0.191945824521E+03   -0.15621E-01   -0.10413E+00  8160   0.218E+00    0.242E-01
DAV:   2    -0.191948996601E+03   -0.31721E-02   -0.40910E-02 12040   0.636E-01    0.295E-01
DAV:   3    -0.191949104299E+03   -0.10770E-03   -0.55901E-03 12440   0.611E-01    0.315E-01
DAV:   4    -0.191947792749E+03    0.13116E-02   -0.16751E-03 10800   0.346E-01    0.707E-02
DAV:   5    -0.191947861631E+03   -0.68882E-04   -0.66894E-04  9800   0.143E-01
  23 F= -.19194786E+03 E0= -.19186733E+03  d E =-.176715E-01
       N       E                     dE             d eps       ncg     rms          rms(c)
DAV:   1    -0.191967241526E+03   -0.19449E-01   -0.12390E+01  8160   0.745E+00    0.755E-01
DAV:   2    -0.192008377289E+03   -0.41136E-01   -0.45078E-01 11880   0.219E+00    0.107E+00
DAV:   3    -0.192003831808E+03    0.45455E-02   -0.61349E-02 12280   0.197E+00    0.873E-01
DAV:   4    -0.191993466974E+03    0.10365E-01   -0.13117E-02 12280   0.942E-01    0.249E-01
DAV:   5    -0.191995870750E+03   -0.24038E-02   -0.68032E-03 12560   0.712E-01    0.502E-01
DAV:   6    -0.191992617094E+03    0.32537E-02   -0.46567E-03 11080   0.575E-01    0.782E-02
DAV:   7    -0.191992576168E+03    0.40926E-04   -0.59718E-04 10280   0.986E-02
  24 F= -.19199258E+03 E0= -.19190969E+03  d E =-.447145E-01
       N       E                     dE             d eps       ncg     rms          rms(c)
DAV:   1    -0.192000445723E+03   -0.78286E-02   -0.35825E+00  8160   0.404E+00    0.465E-01
DAV:   2    -0.192011838817E+03   -0.11393E-01   -0.15844E-01 12040   0.123E+00    0.465E-01
DAV:   3    -0.192013543835E+03   -0.17050E-02   -0.16806E-02 11600   0.107E+00    0.606E-01
DAV:   4    -0.192008814498E+03    0.47293E-02   -0.64690E-03 11360   0.720E-01    0.188E-01
DAV:   5    -0.192009105621E+03   -0.29112E-03   -0.30300E-03 10640   0.406E-01    0.261E-01
DAV:   6    -0.192008427047E+03    0.67857E-03   -0.21900E-03 12000   0.375E-01    0.114E-01
DAV:   7    -0.192008220708E+03    0.20634E-03   -0.50708E-04  8960   0.115E-01    0.339E-02
DAV:   8    -0.192008202105E+03    0.18603E-04   -0.73890E-05  8000   0.407E-02
  25 F= -.19200820E+03 E0= -.19192389E+03  d E =-.156259E-01
       N       E                     dE             d eps       ncg     rms          rms(c)
DAV:   1    -0.192009971508E+03   -0.17508E-02   -0.29746E+00  8160   0.362E+00    0.355E-01
DAV:   2    -0.192020079478E+03   -0.10108E-01   -0.10907E-01 11760   0.109E+00    0.488E-01
DAV:   3    -0.192019106429E+03    0.97305E-03   -0.13931E-02 12080   0.917E-01    0.409E-01
DAV:   4    -0.192017033084E+03    0.20733E-02   -0.31317E-03 11360   0.471E-01    0.148E-01
DAV:   5    -0.192017268550E+03   -0.23547E-03   -0.12724E-03 11160   0.330E-01    0.202E-01
DAV:   6    -0.192016821504E+03    0.44705E-03   -0.10451E-03 11520   0.234E-01    0.496E-02
DAV:   7    -0.192016807242E+03    0.14262E-04   -0.17094E-04  5720   0.930E-02
  26 F= -.19201681E+03 E0= -.19193200E+03  d E =-.860514E-02
       N       E                     dE             d eps       ncg     rms          rms(c)
DAV:   1    -0.192017425831E+03   -0.60433E-03   -0.77870E-02  8160   0.600E-01    0.752E-02
DAV:   2    -0.192017892351E+03   -0.46652E-03   -0.32054E-03 11640   0.286E-01    0.169E-01
DAV:   3    -0.192017533113E+03    0.35924E-03   -0.67954E-04 10200   0.220E-01    0.451E-02
DAV:   4    -0.192017522255E+03    0.10858E-04   -0.95058E-05  6080   0.704E-02
  27 F= -.19201752E+03 E0= -.19193261E+03  d E =-.715013E-03
       N       E                     dE             d eps       ncg     rms          rms(c)
DAV:   1    -0.192018903551E+03   -0.13704E-02   -0.12427E-01  8160   0.743E-01    0.803E-02
DAV:   2    -0.192019261303E+03   -0.35775E-03   -0.45203E-03 12200   0.202E-01    0.852E-02
DAV:   3    -0.192019274990E+03   -0.13687E-04   -0.46047E-04 11280   0.178E-01
  28 F= -.19201927E+03 E0= -.19193413E+03  d E =-.175273E-02
       N       E                     dE             d eps       ncg     rms          rms(c)
DAV:   1    -0.192019661758E+03   -0.40045E-03   -0.15818E-02  8160   0.287E-01    0.493E-02
DAV:   2    -0.192019686903E+03   -0.25145E-04   -0.60411E-04 10440   0.745E-02
  29 F= -.19201969E+03 E0= -.19193446E+03  d E =-.411913E-03
       N       E                     dE             d eps       ncg     rms          rms(c)
DAV:   1    -0.192020875563E+03   -0.12138E-02   -0.11352E-01  8160   0.710E-01    0.867E-02
DAV:   2    -0.192021407646E+03   -0.53208E-03   -0.39824E-03 12320   0.260E-01    0.175E-01
DAV:   3    -0.192021058502E+03    0.34914E-03   -0.92795E-04 10200   0.242E-01    0.683E-02
DAV:   4    -0.192021051697E+03    0.68047E-05   -0.10953E-04  5760   0.922E-02
  30 F= -.19202105E+03 E0= -.19193589E+03  d E =-.136479E-02
       N       E                     dE             d eps       ncg     rms          rms(c)
DAV:   1    -0.192022245025E+03   -0.11865E-02   -0.13344E-01  8160   0.772E-01    0.891E-02
DAV:   2    -0.192022794595E+03   -0.54957E-03   -0.47395E-03 12280   0.253E-01    0.156E-01
DAV:   3    -0.192022538938E+03    0.25566E-03   -0.72823E-04 10160   0.232E-01    0.787E-02
DAV:   4    -0.192022511167E+03    0.27771E-04   -0.12589E-04  5600   0.101E-01
  31 F= -.19202251E+03 E0= -.19193727E+03  d E =-.145947E-02
       N       E                     dE             d eps       ncg     rms          rms(c)
DAV:   1    -0.192023200300E+03   -0.66136E-03   -0.44235E-02  8160   0.450E-01    0.631E-02
DAV:   2    -0.192023449440E+03   -0.24914E-03   -0.17651E-03 12600   0.181E-01    0.127E-01
DAV:   3    -0.192023249022E+03    0.20042E-03   -0.43558E-04  8880   0.169E-01    0.450E-02
DAV:   4    -0.192023261047E+03   -0.12025E-04   -0.72628E-05  5680   0.760E-02
  32 F= -.19202326E+03 E0= -.19193815E+03  d E =-.749880E-03
       N       E                     dE             d eps       ncg     rms          rms(c)
DAV:   1    -0.192024197093E+03   -0.94807E-03   -0.10500E-01  8160   0.683E-01    0.767E-02
DAV:   2    -0.192024569970E+03   -0.37288E-03   -0.35256E-03 13000   0.236E-01    0.127E-01
DAV:   3    -0.192024395459E+03    0.17451E-03   -0.46399E-04  9520   0.191E-01    0.646E-02
DAV:   4    -0.192024379692E+03    0.15767E-04   -0.99510E-05  5480   0.869E-02
  33 F= -.19202438E+03 E0= -.19193921E+03  d E =-.111864E-02
       N       E                     dE             d eps       ncg     rms          rms(c)
DAV:   1    -0.192025099277E+03   -0.70382E-03   -0.59696E-02  8160   0.521E-01    0.687E-02
DAV:   2    -0.192025494381E+03   -0.39510E-03   -0.23544E-03 13040   0.222E-01    0.161E-01
DAV:   3    -0.192025172205E+03    0.32218E-03   -0.65323E-04  9120   0.207E-01    0.465E-02
DAV:   4    -0.192025190811E+03   -0.18606E-04   -0.76478E-05  5440   0.735E-02
  34 F= -.19202519E+03 E0= -.19194013E+03  d E =-.811119E-03
