   27   27  100    1
  0.9710400E+02  0.1002848E-08  0.1002848E-08  0.3000000E-08  0.5000000E-15
  1.000000000000000E-004
  CAR 
 unknown system                          
    159     34    120
 
  0.0000000E+00  0.0000000E+00  0.0000000E+00  0.1562500E-01
    1      -17.805742   1.000000
    2      -16.745077   1.000000
    3      -16.628773   1.000000
    4      -16.570716   1.000000
    5      -16.540789   1.000000
    6      -16.434165   1.000000
    7      -16.424409   1.000000
    8      -16.311165   1.000000
    9      -16.220065   1.000000
   10      -16.169672   1.000000
   11      -16.049700   1.000000
   12      -15.975729   1.000000
   13      -15.901874   1.000000
   14      -15.587039   1.000000
   15      -15.539569   1.000000
   16      -15.492716   1.000000
   17      -15.365888   1.000000
   18      -15.247218   1.000000
   19       -9.327264   1.000000
   20       -9.071187   1.000000
   21       -8.962037   1.000000
   22       -8.875066   1.000000
   23       -8.802239   1.000000
   24       -8.772064   1.000000
   25       -8.679567   1.000000
   26       -8.617905   1.000000
   27       -8.524044   1.000000
   28       -8.375365   1.000000
   29       -8.362151   1.000000
   30       -8.240718   1.000000
   31       -8.199014   1.000000
   32       -8.151385   1.000000
   33       -7.996584   1.000000
   34       -7.987607   1.000000
   35       -7.890781   1.000000
   36       -7.778066   1.000000
   37       -7.679398   1.000000
   38       -7.513633   1.000000
   39       -7.496062   1.000000
   40       -7.436073   1.000000
   41       -7.261591   1.000000
   42       -7.187904   1.000000
   43       -7.108821   1.000000
   44       -6.983068   1.000000
   45       -6.864680   1.000000
   46       -6.851069   1.000000
   47       -6.667060   1.000000
   48       -6.621784   1.000000
   49       -6.602401   1.000000
   50       -6.531601   1.000000
   51       -6.449199   1.000000
   52       -6.421926   1.000000
   53       -6.305994   1.000000
   54       -6.282383   1.000000
   55       -6.160944   1.000000
   56       -6.142953   1.000000
   57       -6.061677   1.000000
   58       -5.929405   1.000000
   59       -5.713913   1.000000
   60       -5.596245   1.000000
   61       -5.513367   1.000000
   62       -5.436655   1.000000
   63       -5.257437   1.000000
   64       -5.079452   1.000000
   65       -5.019683   1.000000
   66       -4.955640   1.000000
   67       -4.864924   1.000000
   68       -4.855466   1.000000
   69       -4.835917   1.000000
   70       -4.722579   1.000000
   71       -4.681909   1.000000
   72       -4.549134   1.000000
   73       -4.503351   1.000000
   74       -4.355266   1.000000
   75       -4.332840   1.000000
   76       -4.121138   1.000000
   77       -3.851872   0.999960
   78       -3.635097   0.992035
   79       -3.469811   0.892836
   80       -3.307920   0.538641
   81       -3.266587   0.422597
   82       -2.893860   0.002321
   83       -2.662174   0.000004
   84       -2.621898   0.000001
   85       -2.459097   0.000000
   86       -2.457832   0.000000
   87       -2.348372   0.000000
   88       -2.296433   0.000000
   89       -2.235043   0.000000
   90       -2.129811   0.000000
   91       -2.006353   0.000000
   92       -1.496368   0.000000
   93       -1.354854   0.000000
   94       -1.286259   0.000000
   95       -1.219195   0.000000
   96       -1.025841   0.000000
   97       -0.908770   0.000000
   98       -0.805271   0.000000
   99       -0.728474   0.000000
  100       -0.664672   0.000000
  101       -0.628593   0.000000
  102       -0.505511   0.000000
  103       -0.421017   0.000000
  104       -0.358371   0.000000
  105       -0.211752   0.000000
  106       -0.136797   0.000000
  107       -0.077576   0.000000
  108        0.003165   0.000000
  109        0.213760   0.000000
  110        0.307910   0.000000
  111        0.360333   0.000000
  112        0.394703   0.000000
  113        0.721473   0.000000
  114        0.743362   0.000000
  115        0.901337   0.000000
  116        1.039199   0.000000
  117        1.112664   0.000000
  118        1.640750   0.000000
  119        1.837502   0.000000
  120        2.148190   0.000000
 
  0.1250000E+00  0.2775558E-16  0.0000000E+00  0.3125000E-01
    1      -17.780368   1.000000
    2      -16.789096   1.000000
    3      -16.738445   1.000000
    4      -16.581544   1.000000
    5      -16.493901   1.000000
    6      -16.451691   1.000000
    7      -16.381030   1.000000
    8      -16.332231   1.000000
    9      -16.232325   1.000000
   10      -16.097955   1.000000
   11      -16.025053   1.000000
   12      -15.957106   1.000000
   13      -15.876030   1.000000
   14      -15.595621   1.000000
   15      -15.558179   1.000000
   16      -15.479160   1.000000
   17      -15.374719   1.000000
   18      -15.254515   1.000000
   19       -9.318430   1.000000
   20       -9.204250   1.000000
   21       -9.076001   1.000000
   22       -8.982912   1.000000
   23       -8.827865   1.000000
   24       -8.699531   1.000000
   25       -8.658277   1.000000
   26       -8.583831   1.000000
   27       -8.482645   1.000000
   28       -8.417398   1.000000
   29       -8.403606   1.000000
   30       -8.200362   1.000000
   31       -8.132492   1.000000
   32       -8.040657   1.000000
   33       -8.008864   1.000000
   34       -7.882078   1.000000
   35       -7.864137   1.000000
   36       -7.705642   1.000000
   37       -7.623569   1.000000
   38       -7.552182   1.000000
   39       -7.474597   1.000000
   40       -7.364256   1.000000
   41       -7.341905   1.000000
   42       -7.216544   1.000000
   43       -7.126334   1.000000
   44       -7.010955   1.000000
   45       -6.876255   1.000000
   46       -6.846327   1.000000
   47       -6.733690   1.000000
   48       -6.671952   1.000000
   49       -6.611906   1.000000
   50       -6.471617   1.000000
   51       -6.431234   1.000000
   52       -6.372791   1.000000
   53       -6.328085   1.000000
   54       -6.253055   1.000000
   55       -6.170318   1.000000
   56       -6.115551   1.000000
   57       -6.010737   1.000000
   58       -5.933965   1.000000
   59       -5.706845   1.000000
   60       -5.571537   1.000000
   61       -5.522323   1.000000
   62       -5.472489   1.000000
   63       -5.346179   1.000000
   64       -5.150370   1.000000
   65       -5.121725   1.000000
   66       -5.017740   1.000000
   67       -4.916602   1.000000
   68       -4.874769   1.000000
   69       -4.794448   1.000000
   70       -4.708129   1.000000
   71       -4.582709   1.000000
   72       -4.523989   1.000000
   73       -4.415486   1.000000
   74       -4.361305   1.000000
   75       -4.262518   1.000000
   76       -4.054947   1.000000
   77       -3.913734   0.999994
   78       -3.712856   0.998464
   79       -3.548286   0.963805
   80       -3.402882   0.778904
   81       -3.075253   0.060788
   82       -2.879829   0.001695
   83       -2.704545   0.000015
   84       -2.626864   0.000001
   85       -2.477353   0.000000
   86       -2.412881   0.000000
   87       -2.338439   0.000000
   88       -2.273801   0.000000
   89       -2.193786   0.000000
   90       -2.126852   0.000000
   91       -2.011685   0.000000
   92       -1.488818   0.000000
   93       -1.351041   0.000000
   94       -1.279960   0.000000
   95       -1.188798   0.000000
   96       -1.014967   0.000000
   97       -0.942754   0.000000
   98       -0.839666   0.000000
   99       -0.752631   0.000000
  100       -0.704195   0.000000
  101       -0.678102   0.000000
  102       -0.524570   0.000000
  103       -0.506931   0.000000
  104       -0.328553   0.000000
  105       -0.265530   0.000000
  106       -0.144147   0.000000
  107       -0.120830   0.000000
  108       -0.065724   0.000000
  109        0.170975   0.000000
  110        0.232201   0.000000
  111        0.363055   0.000000
  112        0.533964   0.000000
  113        0.703643   0.000000
  114        0.746281   0.000000
  115        0.932792   0.000000
  116        1.080893   0.000000
  117        1.151564   0.000000
  118        1.685514   0.000000
  119        1.875834   0.000000
  120        2.183537   0.000000
 
  0.2500000E+00  0.5551115E-16  0.0000000E+00  0.3125000E-01
    1      -17.705245   1.000000
    2      -17.000755   1.000000
    3      -16.731392   1.000000
    4      -16.633665   1.000000
    5      -16.573931   1.000000
    6      -16.425095   1.000000
    7      -16.324825   1.000000
    8      -16.277278   1.000000
    9      -16.224900   1.000000
   10      -16.068511   1.000000
   11      -15.974451   1.000000
   12      -15.905778   1.000000
   13      -15.784067   1.000000
   14      -15.622172   1.000000
   15      -15.586434   1.000000
   16      -15.478163   1.000000
   17      -15.382769   1.000000
   18      -15.271877   1.000000
   19       -9.528781   1.000000
   20       -9.240199   1.000000
   21       -9.225067   1.000000
   22       -9.020013   1.000000
   23       -8.915918   1.000000
   24       -8.717238   1.000000
   25       -8.658168   1.000000
   26       -8.528939   1.000000
   27       -8.456499   1.000000
   28       -8.385295   1.000000
   29       -8.322049   1.000000
   30       -8.241815   1.000000
   31       -8.114319   1.000000
   32       -7.965441   1.000000
   33       -7.902044   1.000000
   34       -7.829633   1.000000
   35       -7.715631   1.000000
   36       -7.640355   1.000000
   37       -7.588469   1.000000
   38       -7.475868   1.000000
   39       -7.448531   1.000000
   40       -7.390564   1.000000
   41       -7.286557   1.000000
   42       -7.191543   1.000000
   43       -7.120830   1.000000
   44       -6.990620   1.000000
   45       -6.936426   1.000000
   46       -6.857154   1.000000
   47       -6.769050   1.000000
   48       -6.677384   1.000000
   49       -6.602813   1.000000
   50       -6.503000   1.000000
   51       -6.414907   1.000000
   52       -6.375527   1.000000
   53       -6.266897   1.000000
   54       -6.183646   1.000000
   55       -6.129049   1.000000
   56       -6.064640   1.000000
   57       -5.955866   1.000000
   58       -5.914768   1.000000
   59       -5.772689   1.000000
   60       -5.693518   1.000000
   61       -5.623013   1.000000
   62       -5.554011   1.000000
   63       -5.444753   1.000000
   64       -5.308075   1.000000
   65       -5.164777   1.000000
   66       -5.099840   1.000000
   67       -4.954738   1.000000
   68       -4.868922   1.000000
   69       -4.817709   1.000000
   70       -4.599828   1.000000
   71       -4.510793   1.000000
   72       -4.426468   1.000000
   73       -4.338255   1.000000
   74       -4.269647   1.000000
   75       -4.179376   1.000000
   76       -4.086975   1.000000
   77       -4.008338   1.000000
   78       -3.874122   0.999979
   79       -3.619064   0.989194
   80       -3.330166   0.600373
   81       -2.937025   0.005775
   82       -2.859190   0.001049
   83       -2.777015   0.000128
   84       -2.614391   0.000001
   85       -2.483445   0.000000
   86       -2.388705   0.000000
   87       -2.301993   0.000000
   88       -2.248892   0.000000
   89       -2.141638   0.000000
   90       -2.098317   0.000000
   91       -1.967080   0.000000
   92       -1.466577   0.000000
   93       -1.335323   0.000000
   94       -1.269436   0.000000
   95       -1.144555   0.000000
   96       -1.053514   0.000000
   97       -0.996947   0.000000
   98       -0.923504   0.000000
   99       -0.829418   0.000000
  100       -0.781177   0.000000
  101       -0.727217   0.000000
  102       -0.622592   0.000000
  103       -0.579382   0.000000
  104       -0.446219   0.000000
  105       -0.342449   0.000000
  106       -0.233507   0.000000
  107       -0.191215   0.000000
  108       -0.063935   0.000000
  109        0.078161   0.000000
  110        0.190182   0.000000
  111        0.314968   0.000000
  112        0.612495   0.000000
  113        0.711635   0.000000
  114        0.754108   0.000000
  115        0.972005   0.000000
  116        1.196895   0.000000
  117        1.299384   0.000000
  118        1.809100   0.000000
  119        1.985537   0.000000
  120        2.288270   0.000000
 
  0.3750000E+00  0.0000000E+00  0.0000000E+00  0.3125000E-01
    1      -17.583885   1.000000
    2      -17.216559   1.000000
    3      -16.722068   1.000000
    4      -16.672470   1.000000
    5      -16.625498   1.000000
    6      -16.451732   1.000000
    7      -16.259205   1.000000
    8      -16.234392   1.000000
    9      -16.203714   1.000000
   10      -16.071850   1.000000
   11      -15.918505   1.000000
   12      -15.845594   1.000000
   13      -15.714741   1.000000
   14      -15.644482   1.000000
   15      -15.606548   1.000000
   16      -15.517314   1.000000
   17      -15.365709   1.000000
   18      -15.288637   1.000000
   19       -9.737022   1.000000
   20       -9.377538   1.000000
   21       -9.176240   1.000000
   22       -9.049139   1.000000
   23       -8.911425   1.000000
   24       -8.736178   1.000000
   25       -8.662126   1.000000
   26       -8.515220   1.000000
   27       -8.467652   1.000000
   28       -8.351871   1.000000
   29       -8.296621   1.000000
   30       -8.195126   1.000000
   31       -8.085825   1.000000
   32       -7.968632   1.000000
   33       -7.884624   1.000000
   34       -7.840426   1.000000
   35       -7.740193   1.000000
   36       -7.650353   1.000000
   37       -7.550457   1.000000
   38       -7.496753   1.000000
   39       -7.380453   1.000000
   40       -7.281380   1.000000
   41       -7.176118   1.000000
   42       -7.133553   1.000000
   43       -7.054286   1.000000
   44       -6.973682   1.000000
   45       -6.901289   1.000000
   46       -6.824370   1.000000
   47       -6.685601   1.000000
   48       -6.621958   1.000000
   49       -6.514186   1.000000
   50       -6.475598   1.000000
   51       -6.424433   1.000000
   52       -6.387672   1.000000
   53       -6.231875   1.000000
   54       -6.192170   1.000000
   55       -6.124975   1.000000
   56       -6.079391   1.000000
   57       -5.977288   1.000000
   58       -5.945807   1.000000
   59       -5.863706   1.000000
   60       -5.789707   1.000000
   61       -5.762806   1.000000
   62       -5.686319   1.000000
   63       -5.543463   1.000000
   64       -5.296814   1.000000
   65       -5.172912   1.000000
   66       -5.143123   1.000000
   67       -5.005697   1.000000
   68       -4.860031   1.000000
   69       -4.743158   1.000000
   70       -4.693347   1.000000
   71       -4.461065   1.000000
   72       -4.396864   1.000000
   73       -4.349566   1.000000
   74       -4.241571   1.000000
   75       -4.181794   1.000000
   76       -4.059006   1.000000
   77       -3.991783   1.000000
   78       -3.854661   0.999963
   79       -3.673699   0.996357
   80       -3.245698   0.365812
   81       -2.895933   0.002430
   82       -2.849363   0.000829
   83       -2.781342   0.000144
   84       -2.596374   0.000000
   85       -2.491203   0.000000
   86       -2.388182   0.000000
   87       -2.306965   0.000000
   88       -2.229079   0.000000
   89       -2.102019   0.000000
   90       -2.047871   0.000000
   91       -1.860548   0.000000
   92       -1.461155   0.000000
   93       -1.317704   0.000000
   94       -1.272518   0.000000
   95       -1.216086   0.000000
   96       -1.108407   0.000000
   97       -1.011362   0.000000
   98       -0.961037   0.000000
   99       -0.878510   0.000000
  100       -0.852883   0.000000
  101       -0.783353   0.000000
  102       -0.709867   0.000000
  103       -0.644972   0.000000
  104       -0.533463   0.000000
  105       -0.445651   0.000000
  106       -0.321625   0.000000
  107       -0.213735   0.000000
  108       -0.058864   0.000000
  109        0.010799   0.000000
  110        0.107322   0.000000
  111        0.296932   0.000000
  112        0.626160   0.000000
  113        0.664971   0.000000
  114        0.803567   0.000000
  115        1.034383   0.000000
  116        1.320471   0.000000
  117        1.439129   0.000000
  118        1.994054   0.000000
  119        2.156980   0.000000
  120        2.459424   0.000000
 
  0.5000000E+00  0.1110223E-15  0.0000000E+00  0.1562500E-01
    1      -17.447507   1.000000
    2      -17.386219   1.000000
    3      -16.715415   1.000000
    4      -16.691822   1.000000
    5      -16.639203   1.000000
    6      -16.463363   1.000000
    7      -16.243461   1.000000
    8      -16.220496   1.000000
    9      -16.182926   1.000000
   10      -16.080656   1.000000
   11      -15.888097   1.000000
   12      -15.797360   1.000000
   13      -15.739412   1.000000
   14      -15.628654   1.000000
   15      -15.611310   1.000000
   16      -15.545711   1.000000
   17      -15.354510   1.000000
   18      -15.294811   1.000000
   19       -9.812743   1.000000
   20       -9.425815   1.000000
   21       -9.153845   1.000000
   22       -9.092673   1.000000
   23       -8.794397   1.000000
   24       -8.762495   1.000000
   25       -8.707567   1.000000
   26       -8.581601   1.000000
   27       -8.452857   1.000000
   28       -8.352660   1.000000
   29       -8.201780   1.000000
   30       -8.145386   1.000000
   31       -8.077108   1.000000
   32       -8.036492   1.000000
   33       -7.900338   1.000000
   34       -7.855640   1.000000
   35       -7.796130   1.000000
   36       -7.633450   1.000000
   37       -7.534684   1.000000
   38       -7.501315   1.000000
   39       -7.404388   1.000000
   40       -7.316790   1.000000
   41       -7.060924   1.000000
   42       -7.042049   1.000000
   43       -6.986100   1.000000
   44       -6.930013   1.000000
   45       -6.866254   1.000000
   46       -6.731073   1.000000
   47       -6.630445   1.000000
   48       -6.605610   1.000000
   49       -6.590122   1.000000
   50       -6.462751   1.000000
   51       -6.442124   1.000000
   52       -6.352496   1.000000
   53       -6.328729   1.000000
   54       -6.224911   1.000000
   55       -6.131513   1.000000
   56       -6.038379   1.000000
   57       -5.982363   1.000000
   58       -5.956004   1.000000
   59       -5.897882   1.000000
   60       -5.840026   1.000000
   61       -5.753995   1.000000
   62       -5.708826   1.000000
   63       -5.530245   1.000000
   64       -5.341717   1.000000
   65       -5.268094   1.000000
   66       -5.102956   1.000000
   67       -5.093715   1.000000
   68       -4.916554   1.000000
   69       -4.722316   1.000000
   70       -4.615113   1.000000
   71       -4.459393   1.000000
   72       -4.437319   1.000000
   73       -4.369716   1.000000
   74       -4.233673   1.000000
   75       -4.187970   1.000000
   76       -4.010307   1.000000
   77       -3.893804   0.999989
   78       -3.876899   0.999981
   79       -3.711247   0.998406
   80       -3.209153   0.273795
   81       -2.912282   0.003461
   82       -2.817038   0.000370
   83       -2.781456   0.000144
   84       -2.591236   0.000000
   85       -2.486197   0.000000
   86       -2.400793   0.000000
   87       -2.315229   0.000000
   88       -2.215509   0.000000
   89       -2.073979   0.000000
   90       -2.034790   0.000000
   91       -1.800919   0.000000
   92       -1.467505   0.000000
   93       -1.339223   0.000000
   94       -1.278259   0.000000
   95       -1.245788   0.000000
   96       -1.139650   0.000000
   97       -1.013861   0.000000
   98       -0.946633   0.000000
   99       -0.903416   0.000000
  100       -0.874739   0.000000
  101       -0.812971   0.000000
  102       -0.735500   0.000000
  103       -0.693651   0.000000
  104       -0.552896   0.000000
  105       -0.477635   0.000000
  106       -0.362034   0.000000
  107       -0.216719   0.000000
  108       -0.066213   0.000000
  109       -0.024433   0.000000
  110        0.082429   0.000000
  111        0.295532   0.000000
  112        0.628187   0.000000
  113        0.635921   0.000000
  114        0.833542   0.000000
  115        1.058725   0.000000
  116        1.365968   0.000000
  117        1.494370   0.000000
  118        2.210929   0.000000
  119        2.253144   0.000000
  120        2.382779   0.000000
 
  0.0000000E+00  0.1250000E+00  0.0000000E+00  0.3125000E-01
    1      -17.780368   1.000000
    2      -16.789250   1.000000
    3      -16.738081   1.000000
    4      -16.581480   1.000000
    5      -16.494660   1.000000
    6      -16.451875   1.000000
    7      -16.380306   1.000000
    8      -16.332263   1.000000
    9      -16.232251   1.000000
   10      -16.098680   1.000000
   11      -16.024240   1.000000
   12      -15.956689   1.000000
   13      -15.876624   1.000000
   14      -15.595684   1.000000
   15      -15.558419   1.000000
   16      -15.479091   1.000000
   17      -15.374313   1.000000
   18      -15.254688   1.000000
   19       -9.318481   1.000000
   20       -9.204247   1.000000
   21       -9.076088   1.000000
   22       -8.983167   1.000000
   23       -8.827571   1.000000
   24       -8.699052   1.000000
   25       -8.658332   1.000000
   26       -8.583997   1.000000
   27       -8.483385   1.000000
   28       -8.417084   1.000000
   29       -8.403530   1.000000
   30       -8.200721   1.000000
   31       -8.132244   1.000000
   32       -8.039780   1.000000
   33       -8.009441   1.000000
   34       -7.881819   1.000000
   35       -7.864169   1.000000
   36       -7.705735   1.000000
   37       -7.623738   1.000000
   38       -7.552704   1.000000
   39       -7.474758   1.000000
   40       -7.363773   1.000000
   41       -7.341395   1.000000
   42       -7.216335   1.000000
   43       -7.126221   1.000000
   44       -7.011388   1.000000
   45       -6.876646   1.000000
   46       -6.845653   1.000000
   47       -6.735008   1.000000
   48       -6.669884   1.000000
   49       -6.613055   1.000000
   50       -6.471110   1.000000
   51       -6.431602   1.000000
   52       -6.371678   1.000000
   53       -6.329594   1.000000
   54       -6.252694   1.000000
   55       -6.171253   1.000000
   56       -6.114922   1.000000
   57       -6.010547   1.000000
   58       -5.934257   1.000000
   59       -5.706604   1.000000
   60       -5.570742   1.000000
   61       -5.522026   1.000000
   62       -5.473870   1.000000
   63       -5.345202   1.000000
   64       -5.151537   1.000000
   65       -5.119979   1.000000
   66       -5.018200   1.000000
   67       -4.918595   1.000000
   68       -4.874590   1.000000
   69       -4.793810   1.000000
   70       -4.708339   1.000000
   71       -4.581642   1.000000
   72       -4.526182   1.000000
   73       -4.414961   1.000000
   74       -4.361073   1.000000
   75       -4.261582   1.000000
   76       -4.054634   1.000000
   77       -3.913421   0.999994
   78       -3.714327   0.998515
   79       -3.547053   0.963107
   80       -3.402504   0.778108
   81       -3.076167   0.061569
   82       -2.879769   0.001692
   83       -2.703953   0.000015
   84       -2.627914   0.000001
   85       -2.476401   0.000000
   86       -2.413501   0.000000
   87       -2.337811   0.000000
   88       -2.273906   0.000000
   89       -2.194077   0.000000
   90       -2.127144   0.000000
   91       -2.011339   0.000000
   92       -1.488752   0.000000
   93       -1.351278   0.000000
   94       -1.279564   0.000000
   95       -1.189190   0.000000
   96       -1.015507   0.000000
   97       -0.942304   0.000000
   98       -0.840066   0.000000
   99       -0.752423   0.000000
  100       -0.703284   0.000000
  101       -0.679650   0.000000
  102       -0.524929   0.000000
  103       -0.505813   0.000000
  104       -0.328691   0.000000
  105       -0.265682   0.000000
  106       -0.143437   0.000000
  107       -0.120806   0.000000
  108       -0.065423   0.000000
  109        0.170130   0.000000
  110        0.232600   0.000000
  111        0.364315   0.000000
  112        0.533449   0.000000
  113        0.704025   0.000000
  114        0.745126   0.000000
  115        0.932054   0.000000
  116        1.079980   0.000000
  117        1.153135   0.000000
  118        1.685504   0.000000
  119        1.875822   0.000000
  120        2.183537   0.000000
 
  0.1250000E+00  0.1250000E+00  0.0000000E+00  0.3125000E-01
    1      -17.728130   1.000000
    2      -16.948051   1.000000
    3      -16.732714   1.000000
    4      -16.648751   1.000000
    5      -16.512602   1.000000
    6      -16.399175   1.000000
    7      -16.382836   1.000000
    8      -16.276886   1.000000
    9      -16.229610   1.000000
   10      -16.091402   1.000000
   11      -15.987166   1.000000
   12      -15.935677   1.000000
   13      -15.796353   1.000000
   14      -15.602031   1.000000
   15      -15.578415   1.000000
   16      -15.470297   1.000000
   17      -15.386726   1.000000
   18      -15.271688   1.000000
   19       -9.468779   1.000000
   20       -9.249341   1.000000
   21       -9.198109   1.000000
   22       -8.967348   1.000000
   23       -8.951066   1.000000
   24       -8.676451   1.000000
   25       -8.667777   1.000000
   26       -8.489816   1.000000
   27       -8.455990   1.000000
   28       -8.386833   1.000000
   29       -8.341138   1.000000
   30       -8.248228   1.000000
   31       -8.119208   1.000000
   32       -8.115007   1.000000
   33       -7.912854   1.000000
   34       -7.752732   1.000000
   35       -7.726231   1.000000
   36       -7.689431   1.000000
   37       -7.633000   1.000000
   38       -7.452733   1.000000
   39       -7.414385   1.000000
   40       -7.357490   1.000000
   41       -7.315249   1.000000
   42       -7.212521   1.000000
   43       -7.180156   1.000000
   44       -7.063880   1.000000
   45       -6.870230   1.000000
   46       -6.835152   1.000000
   47       -6.765685   1.000000
   48       -6.711887   1.000000
   49       -6.651615   1.000000
   50       -6.496068   1.000000
   51       -6.415512   1.000000
   52       -6.299676   1.000000
   53       -6.252799   1.000000
   54       -6.213635   1.000000
   55       -6.180888   1.000000
   56       -6.087302   1.000000
   57       -5.947999   1.000000
   58       -5.930465   1.000000
   59       -5.754348   1.000000
   60       -5.677912   1.000000
   61       -5.511597   1.000000
   62       -5.466624   1.000000
   63       -5.409037   1.000000
   64       -5.367052   1.000000
   65       -5.151105   1.000000
   66       -5.122901   1.000000
   67       -4.937564   1.000000
   68       -4.889507   1.000000
   69       -4.784180   1.000000
   70       -4.653960   1.000000
   71       -4.547534   1.000000
   72       -4.436580   1.000000
   73       -4.314522   1.000000
   74       -4.277463   1.000000
   75       -4.225381   1.000000
   76       -4.029125   1.000000
   77       -3.969675   0.999999
   78       -3.871767   0.999978
   79       -3.646799   0.993671
   80       -3.321050   0.575288
   81       -2.927943   0.004801
   82       -2.894222   0.002340
   83       -2.783239   0.000151
   84       -2.635097   0.000002
   85       -2.485416   0.000000
   86       -2.397911   0.000000
   87       -2.338581   0.000000
   88       -2.249313   0.000000
   89       -2.139750   0.000000
   90       -2.091153   0.000000
   91       -2.016869   0.000000
   92       -1.458651   0.000000
   93       -1.335900   0.000000
   94       -1.261252   0.000000
   95       -1.132120   0.000000
   96       -1.028552   0.000000
   97       -0.935996   0.000000
   98       -0.916509   0.000000
   99       -0.807533   0.000000
  100       -0.750530   0.000000
  101       -0.725426   0.000000
  102       -0.592504   0.000000
  103       -0.552909   0.000000
  104       -0.480864   0.000000
  105       -0.277530   0.000000
  106       -0.191057   0.000000
  107       -0.149920   0.000000
  108       -0.096298   0.000000
  109        0.085858   0.000000
  110        0.214199   0.000000
  111        0.290219   0.000000
  112        0.612147   0.000000
  113        0.695308   0.000000
  114        0.753411   0.000000
  115        0.953918   0.000000
  116        1.165968   0.000000
  117        1.276322   0.000000
  118        1.772238   0.000000
  119        1.947703   0.000000
  120        2.254165   0.000000
 
  0.2500000E+00  0.1250000E+00  0.0000000E+00  0.3125000E-01
    1      -17.627679   1.000000
    2      -17.131531   1.000000
    3      -16.817018   1.000000
    4      -16.660217   1.000000
    5      -16.528441   1.000000
    6      -16.412312   1.000000
    7      -16.300886   1.000000
    8      -16.231192   1.000000
    9      -16.208643   1.000000
   10      -16.091330   1.000000
   11      -15.964028   1.000000
   12      -15.895956   1.000000
   13      -15.693037   1.000000
   14      -15.623984   1.000000
   15      -15.596759   1.000000
   16      -15.503411   1.000000
   17      -15.374799   1.000000
   18      -15.288956   1.000000
   19       -9.667401   1.000000
   20       -9.423338   1.000000
   21       -9.135615   1.000000
   22       -9.078193   1.000000
   23       -8.875775   1.000000
   24       -8.705199   1.000000
   25       -8.652696   1.000000
   26       -8.467521   1.000000
   27       -8.439317   1.000000
   28       -8.362597   1.000000
   29       -8.287175   1.000000
   30       -8.235414   1.000000
   31       -8.124830   1.000000
   32       -8.048967   1.000000
   33       -7.906528   1.000000
   34       -7.844048   1.000000
   35       -7.773783   1.000000
   36       -7.612775   1.000000
   37       -7.531996   1.000000
   38       -7.443926   1.000000
   39       -7.410653   1.000000
   40       -7.303546   1.000000
   41       -7.235529   1.000000
   42       -7.165251   1.000000
   43       -7.064190   1.000000
   44       -6.929098   1.000000
   45       -6.900412   1.000000
   46       -6.800495   1.000000
   47       -6.700732   1.000000