       N       E                     dE             d eps       ncg     rms          rms(c)
DAV:   1     0.112409580928E+04    0.11241E+04   -0.35862E+04  8160   0.577E+02
DAV:   2     0.125322205252E+01   -0.11228E+04   -0.10768E+04 11040   0.173E+02
DAV:   3    -0.199601398421E+03   -0.20085E+03   -0.19263E+03 10920   0.825E+01
DAV:   4    -0.208992161914E+03   -0.93908E+01   -0.90765E+01 11920   0.263E+01
DAV:   5    -0.209356596238E+03   -0.36443E+00   -0.36345E+00 11560   0.388E+00    0.277E+01
DAV:   6    -0.240778610230E+03   -0.31422E+02   -0.11542E+02 12640   0.599E+01    0.605E+01
DAV:   7    -0.196260563489E+03    0.44518E+02   -0.17718E+02 13040   0.150E+02    0.199E+01
DAV:   8    -0.189532479221E+03    0.67281E+01   -0.18794E+01 12080   0.128E+01    0.126E+01
DAV:   9    -0.188080890560E+03    0.14516E+01   -0.31264E+00 12720   0.622E+00    0.892E+00
DAV:  10    -0.186925339385E+03    0.11556E+01   -0.15963E+00 13320   0.746E+00    0.204E+00
DAV:  11    -0.187072943315E+03   -0.14760E+00   -0.69604E-01 13360   0.411E+00    0.439E+00
DAV:  12    -0.186908839610E+03    0.16410E+00   -0.49458E-01 13240   0.415E+00    0.269E+00
DAV:  13    -0.186836366055E+03    0.72474E-01   -0.16539E-01 13160   0.217E+00    0.737E-01
DAV:  14    -0.186827295202E+03    0.90709E-02   -0.25012E-02 12240   0.654E-01    0.497E-01
DAV:  15    -0.186825496326E+03    0.17989E-02   -0.88751E-03 13320   0.338E-01    0.347E-01
DAV:  16    -0.186825352827E+03    0.14350E-03   -0.89157E-03 12680   0.488E-01    0.488E-01
DAV:  17    -0.186823670943E+03    0.16819E-02   -0.57639E-03 13160   0.396E-01    0.242E-01
DAV:  18    -0.186823113699E+03    0.55724E-03   -0.15434E-03 11720   0.194E-01    0.617E-02
DAV:  19    -0.186823837940E+03   -0.72424E-03   -0.91166E-04 10080   0.884E-02    0.675E-02
DAV:  20    -0.186824760999E+03   -0.92306E-03   -0.32220E-04  8240   0.581E-02    0.519E-02
DAV:  21    -0.186825332146E+03   -0.57115E-03   -0.15446E-04  6520   0.393E-02    0.263E-02
DAV:  22    -0.186826504961E+03   -0.11728E-02   -0.13881E-04  7560   0.277E-02    0.139E-02
DAV:  23    -0.186826931436E+03   -0.42648E-03   -0.26059E-05  6880   0.159E-02    0.909E-03
DAV:  24    -0.186827507257E+03   -0.57582E-03   -0.34254E-05  7080   0.119E-02    0.441E-03
DAV:  25    -0.186827872232E+03   -0.36498E-03   -0.86300E-06  6240   0.804E-03    0.287E-03
DAV:  26    -0.186828122473E+03   -0.25024E-03   -0.76766E-06  6760   0.588E-03    0.125E-03
DAV:  27    -0.186828193045E+03   -0.70571E-04   -0.25321E-06  7720   0.366E-03
   1 F= -.18682819E+03 E0= -.18665492E+03  d E =-.186828E+03
       N       E                     dE             d eps       ncg     rms          rms(c)
DAV:   1    -0.187522023334E+03   -0.69390E+00   -0.27736E+02  8160   0.353E+01    0.477E+00
DAV:   2    -0.189922476240E+03   -0.24005E+01   -0.21041E+01 12280   0.167E+01    0.122E+01
DAV:   3    -0.189238663964E+03    0.68381E+00   -0.51682E+00 12560   0.133E+01    0.571E+00
DAV:   4    -0.188772217626E+03    0.46645E+00   -0.56809E-01 12640   0.379E+00    0.171E+00
DAV:   5    -0.188773516663E+03   -0.12990E-02   -0.32928E-01 12400   0.220E+00    0.276E+00
DAV:   6    -0.188767468481E+03    0.60482E-02   -0.39596E-01 12720   0.341E+00    0.327E+00
DAV:   7    -0.188716254654E+03    0.51214E-01   -0.25538E-01 12640   0.253E+00    0.140E+00
DAV:   8    -0.188686211773E+03    0.30043E-01   -0.48190E-02 10720   0.808E-01    0.233E-01
DAV:   9    -0.188686321704E+03   -0.10993E-03   -0.48594E-03 11480   0.205E-01    0.199E-01
DAV:  10    -0.188685864620E+03    0.45708E-03   -0.25359E-03 13280   0.204E-01    0.203E-01
DAV:  11    -0.188685888107E+03   -0.23487E-04   -0.18575E-03 12000   0.237E-01    0.195E-01
DAV:  12    -0.188685759700E+03    0.12841E-03   -0.83080E-04 11080   0.139E-01    0.655E-02
DAV:  13    -0.188685725783E+03    0.33916E-04   -0.18653E-04  8000   0.495E-02
   2 F= -.18868573E+03 E0= -.18854367E+03  d E =-.185753E+01
       N       E                     dE             d eps       ncg     rms          rms(c)
DAV:   1    -0.190637547657E+03   -0.19518E+01   -0.32074E+01  9160   0.144E+01    0.446E+00
DAV:   2    -0.190565352852E+03    0.72195E-01   -0.28055E+00 11880   0.921E+00    0.722E+00
DAV:   3    -0.190125256649E+03    0.44010E+00   -0.15298E+00 12440   0.845E+00    0.430E+00
DAV:   4    -0.189897642959E+03    0.22761E+00   -0.71767E-01 12720   0.436E+00    0.242E+00
DAV:   5    -0.189813196596E+03    0.84446E-01   -0.29806E-01 11920   0.203E+00    0.108E+00
DAV:   6    -0.189802418880E+03    0.10778E-01   -0.60514E-02 11880   0.133E+00    0.900E-01
DAV:   7    -0.189796279418E+03    0.61395E-02   -0.16830E-02 11720   0.716E-01    0.245E-01
DAV:   8    -0.189795895661E+03    0.38376E-03   -0.22537E-03 11160   0.161E-01    0.126E-01
DAV:   9    -0.189796307357E+03   -0.41170E-03   -0.85724E-04 10080   0.107E-01    0.121E-01
DAV:  10    -0.189796076825E+03    0.23053E-03   -0.49182E-04  9520   0.977E-02    0.592E-02
DAV:  11    -0.189796109205E+03   -0.32381E-04   -0.20707E-04  8040   0.922E-02
   3 F= -.18979611E+03 E0= -.18967479E+03  d E =-.111038E+01
       N       E                     dE             d eps       ncg     rms          rms(c)
DAV:   1    -0.191412458075E+03   -0.16164E+01   -0.83830E+01  8160   0.208E+01    0.460E+00
DAV:   2    -0.191167848992E+03    0.24461E+00   -0.54081E+00 12760   0.686E+00    0.386E+00
DAV:   3    -0.191387604941E+03   -0.21976E+00   -0.15135E+00 12240   0.860E+00    0.677E+00
DAV:   4    -0.190984335919E+03    0.40327E+00   -0.13683E+00 12280   0.812E+00    0.292E+00
DAV:   5    -0.190865473923E+03    0.11886E+00   -0.32779E-01 11960   0.263E+00    0.144E+00
DAV:   6    -0.190864526219E+03    0.94770E-03   -0.15105E-01 12640   0.241E+00    0.177E+00
DAV:   7    -0.190839414322E+03    0.25112E-01   -0.68005E-02 12120   0.161E+00    0.484E-01
DAV:   8    -0.190836301717E+03    0.31126E-02   -0.81476E-03 10920   0.453E-01    0.306E-01
DAV:   9    -0.190835966897E+03    0.33482E-03   -0.29789E-03 12840   0.346E-01    0.227E-01
DAV:  10    -0.190835849252E+03    0.11765E-03   -0.18163E-03 11120   0.205E-01    0.641E-02
DAV:  11    -0.190835844413E+03    0.48382E-05   -0.25269E-04  7520   0.631E-02
   4 F= -.19083584E+03 E0= -.19072836E+03  d E =-.103974E+01
       N       E                     dE             d eps       ncg     rms          rms(c)
DAV:   1    -0.192230638317E+03   -0.13948E+01   -0.17771E+02  8160   0.296E+01    0.564E+00
DAV:   2    -0.191934215884E+03    0.29642E+00   -0.91595E+00 10000   0.732E+00    0.314E+00
DAV:   3    -0.191809294760E+03    0.12492E+00   -0.14238E+00 10880   0.470E+00    0.340E+00
DAV:   4    -0.191838073068E+03   -0.28778E-01   -0.88788E-01 12160   0.676E+00    0.490E+00
DAV:   5    -0.191599776740E+03    0.23830E+00   -0.70083E-01 12320   0.560E+00    0.178E+00
DAV:   6    -0.191595150912E+03    0.46258E-02   -0.20934E-01 12280   0.283E+00    0.189E+00
DAV:   7    -0.191563857981E+03    0.31293E-01   -0.95475E-02 12320   0.200E+00    0.619E-01
DAV:   8    -0.191561963063E+03    0.18949E-02   -0.22139E-02 11560   0.858E-01    0.659E-01
DAV:   9    -0.191558149430E+03    0.38136E-02   -0.95943E-03 11840   0.625E-01    0.193E-01
DAV:  10    -0.191558172470E+03   -0.23040E-04   -0.20129E-03 11600   0.185E-01    0.802E-02
DAV:  11    -0.191558132583E+03    0.39886E-04   -0.36501E-04  9360   0.774E-02
   5 F= -.19155813E+03 E0= -.19145074E+03  d E =-.722288E+00
       N       E                     dE             d eps       ncg     rms          rms(c)
DAV:   1    -0.191626086533E+03   -0.67914E-01   -0.44206E+00  8160   0.450E+00    0.726E-01
DAV:   2    -0.191690779836E+03   -0.64693E-01   -0.30078E-01 12400   0.301E+00    0.241E+00
DAV:   3    -0.191633599879E+03    0.57180E-01   -0.11975E-01 12560   0.234E+00    0.484E-01
DAV:   4    -0.191638251758E+03   -0.46519E-02   -0.26587E-02 10920   0.105E+00    0.887E-01
DAV:   5    -0.191629903115E+03    0.83486E-02   -0.15540E-02 10600   0.843E-01    0.226E-01
DAV:   6    -0.191629494494E+03    0.40862E-03   -0.42552E-03 11200   0.259E-01    0.150E-01
DAV:   7    -0.191629768404E+03   -0.27391E-03   -0.25940E-03 11800   0.298E-01    0.265E-01
DAV:   8    -0.191629150019E+03    0.61839E-03   -0.13179E-03  8920   0.219E-01    0.423E-02
DAV:   9    -0.191629154893E+03   -0.48739E-05   -0.77707E-05  5760   0.381E-02
   6 F= -.19162915E+03 E0= -.19152012E+03  d E =-.710223E-01
       N       E                     dE             d eps       ncg     rms          rms(c)
DAV:   1    -0.191721012177E+03   -0.91862E-01   -0.92264E+00  8160   0.641E+00    0.778E-01
DAV:   2    -0.191797001706E+03   -0.75990E-01   -0.34462E-01 13080   0.269E+00    0.261E+00
DAV:   3    -0.191733150957E+03    0.63851E-01   -0.16419E-01 12480   0.264E+00    0.689E-01
DAV:   4    -0.191735256889E+03   -0.21059E-02   -0.30749E-02 10640   0.109E+00    0.814E-01
DAV:   5    -0.191727750257E+03    0.75066E-02   -0.13233E-02 11120   0.828E-01    0.214E-01
DAV:   6    -0.191727334729E+03    0.41553E-03   -0.33624E-03 10520   0.228E-01    0.126E-01
DAV:   7    -0.191727029185E+03    0.30554E-03   -0.12972E-03 10800   0.132E-01    0.501E-02
DAV:   8    -0.191727006271E+03    0.22914E-04   -0.21782E-04  7320   0.697E-02
   7 F= -.19172701E+03 E0= -.19161700E+03  d E =-.978514E-01
       N       E                     dE             d eps       ncg     rms          rms(c)
DAV:   1    -0.191780063542E+03   -0.53034E-01   -0.27104E+00  8160   0.351E+00    0.491E-01
DAV:   2    -0.191817263818E+03   -0.37200E-01   -0.14881E-01 12320   0.210E+00    0.193E+00
DAV:   3    -0.191783528472E+03    0.33735E-01   -0.72437E-02 12440   0.173E+00    0.337E-01
DAV:   4    -0.191785135969E+03   -0.16075E-02   -0.10481E-02 11480   0.669E-01    0.536E-01
DAV:   5    -0.191782406412E+03    0.27296E-02   -0.73120E-03 11360   0.551E-01    0.237E-01
DAV:   6    -0.191782835124E+03   -0.42871E-03   -0.42428E-03 11800   0.390E-01    0.327E-01
DAV:   7    -0.191781958934E+03    0.87619E-03   -0.27839E-03 11320   0.317E-01    0.903E-02
DAV:   8    -0.191781813855E+03    0.14508E-03   -0.31883E-04  7720   0.781E-02    0.175E-02
DAV:   9    -0.191781819896E+03   -0.60407E-05   -0.65511E-05  7520   0.241E-02
   8 F= -.19178182E+03 E0= -.19167225E+03  d E =-.548136E-01
       N       E                     dE             d eps       ncg     rms          rms(c)
DAV:   1    -0.191890400518E+03   -0.10859E+00   -0.19728E+01  8160   0.945E+00    0.114E+00
DAV:   2    -0.192077772141E+03   -0.18737E+00   -0.83847E-01 11200   0.458E+00    0.425E+00
DAV:   3    -0.191921103535E+03    0.15667E+00   -0.37994E-01 12400   0.399E+00    0.744E-01
DAV:   4    -0.191916102098E+03    0.50014E-02   -0.26890E-02 12240   0.879E-01    0.614E-01
DAV:   5    -0.191914401412E+03    0.17007E-02   -0.19324E-02 11680   0.102E+00    0.612E-01
DAV:   6    -0.191913571567E+03    0.82984E-03   -0.19002E-02 12600   0.815E-01    0.608E-01
DAV:   7    -0.191912351955E+03    0.12196E-02   -0.15351E-02 11800   0.761E-01    0.464E-01
DAV:   8    -0.191909951999E+03    0.24000E-02   -0.44430E-03 11560   0.388E-01    0.472E-02
DAV:   9    -0.191909988537E+03   -0.36538E-04   -0.36060E-04  9320   0.568E-02
   9 F= -.19190999E+03 E0= -.19180432E+03  d E =-.128169E+00
       N       E                     dE             d eps       ncg     rms          rms(c)
DAV:   1    -0.191942040031E+03   -0.32088E-01   -0.13910E+00  8160   0.260E+00    0.456E-01
DAV:   2    -0.191956029172E+03   -0.13989E-01   -0.90799E-02 11200   0.145E+00    0.123E+00
DAV:   3    -0.191943025533E+03    0.13004E-01   -0.34925E-02 12040   0.126E+00    0.373E-01
DAV:   4    -0.191942682352E+03    0.34318E-03   -0.74829E-03 11400   0.589E-01    0.394E-01
DAV:   5    -0.191941278049E+03    0.14043E-02   -0.51953E-03 10960   0.557E-01    0.234E-01
DAV:   6    -0.191940539994E+03    0.73806E-03   -0.22355E-03 10920   0.260E-01    0.596E-02
DAV:   7    -0.191940481589E+03    0.58405E-04   -0.33727E-04  8640   0.716E-02
  10 F= -.19194048E+03 E0= -.19183583E+03  d E =-.304931E-01
       N       E                     dE             d eps       ncg     rms          rms(c)
DAV:   1    -0.191970858639E+03   -0.30319E-01   -0.19229E+00  8160   0.293E+00    0.347E-01
DAV:   2    -0.191981536083E+03   -0.10677E-01   -0.73636E-02 10760   0.109E+00    0.894E-01
DAV:   3    -0.191975178638E+03    0.63574E-02   -0.23339E-02 12400   0.102E+00    0.396E-01
DAV:   4    -0.191974626859E+03    0.55178E-03   -0.56709E-03 11040   0.441E-01    0.349E-01
DAV:   5    -0.191973804701E+03    0.82216E-03   -0.40164E-03 11080   0.414E-01    0.225E-01
DAV:   6    -0.191973722155E+03    0.82546E-04   -0.20240E-03 10360   0.266E-01    0.192E-01
DAV:   7    -0.191973453819E+03    0.26834E-03   -0.12299E-03 10560   0.255E-01    0.951E-02
DAV:   8    -0.191973323063E+03    0.13076E-03   -0.25045E-04  7320   0.974E-02    0.179E-02
DAV:   9    -0.191973323769E+03   -0.70581E-06   -0.49207E-05  7000   0.248E-02
  11 F= -.19197332E+03 E0= -.19187080E+03  d E =-.328422E-01
       N       E                     dE             d eps       ncg     rms          rms(c)
DAV:   1    -0.191992328630E+03   -0.19006E-01   -0.62759E-01  8160   0.171E+00    0.232E-01
DAV:   2    -0.191995659050E+03   -0.33304E-02   -0.27037E-02 11360   0.682E-01    0.535E-01
DAV:   3    -0.191993317722E+03    0.23413E-02   -0.78501E-03 11760   0.605E-01    0.218E-01
DAV:   4    -0.191992883125E+03    0.43460E-03   -0.15390E-03 10680   0.243E-01    0.129E-01
DAV:   5    -0.191992835195E+03    0.47930E-04   -0.92364E-04 10720   0.238E-01
  12 F= -.19199284E+03 E0= -.19189123E+03  d E =-.195114E-01
       N       E                     dE             d eps       ncg     rms          rms(c)
DAV:   1    -0.191980868583E+03    0.12015E-01   -0.28605E-01  8160   0.117E+00    0.161E-01
DAV:   2    -0.191983261943E+03   -0.23934E-02   -0.12865E-02 11840   0.544E-01    0.417E-01
DAV:   3    -0.191981276066E+03    0.19859E-02   -0.45868E-03 10640   0.515E-01    0.139E-01
DAV:   4    -0.191981288970E+03   -0.12904E-04   -0.11045E-03  9560   0.203E-01    0.163E-01
DAV:   5    -0.191981068683E+03    0.22029E-03   -0.68340E-04  8320   0.169E-01    0.776E-02
DAV:   6    -0.191981060304E+03    0.83790E-05   -0.28562E-04  7200   0.998E-02
  13 F= -.19198106E+03 E0= -.19187846E+03  d E =0.117749E-01
       N       E                     dE             d eps       ncg     rms          rms(c)
DAV:   1    -0.191978133351E+03    0.29353E-02   -0.26845E-01  8160   0.124E+00    0.281E-01
DAV:   2    -0.191976447556E+03    0.16858E-02   -0.12267E-02 10240   0.364E-01    0.226E-01
DAV:   3    -0.191977042405E+03   -0.59485E-03   -0.55543E-03 11360   0.504E-01    0.387E-01
DAV:   4    -0.191976157524E+03    0.88488E-03   -0.58139E-03 10000   0.491E-01    0.295E-01
DAV:   5    -0.191976044446E+03    0.11308E-03   -0.37125E-03 11480   0.381E-01    0.271E-01
DAV:   6    -0.191975293687E+03    0.75076E-03   -0.16660E-03  9720   0.261E-01    0.822E-02
DAV:   7    -0.191975277090E+03    0.16597E-04   -0.27272E-04  7280   0.110E-01
  14 F= -.19197528E+03 E0= -.19187295E+03  d E =0.578321E-02
       N       E                     dE             d eps       ncg     rms          rms(c)
DAV:   1    -0.192016573711E+03   -0.41280E-01   -0.26160E+00  8160   0.356E+00    0.521E-01
DAV:   2    -0.192023447391E+03   -0.68737E-02   -0.96570E-02 11960   0.118E+00    0.903E-01
DAV:   3    -0.192019250001E+03    0.41974E-02   -0.32274E-02 12360   0.126E+00    0.632E-01
DAV:   4    -0.192014692199E+03    0.45578E-02   -0.98105E-03 12200   0.587E-01    0.205E-01
DAV:   5    -0.192013866209E+03    0.82599E-03   -0.31900E-03 10360   0.216E-01    0.121E-01
DAV:   6    -0.192014574258E+03   -0.70805E-03   -0.27866E-03 11840   0.324E-01    0.320E-01
DAV:   7    -0.192013691986E+03    0.88227E-03   -0.16955E-03  9960   0.253E-01    0.560E-02
DAV:   8    -0.192013694864E+03   -0.28785E-05   -0.14106E-04  6120   0.847E-02
  15 F= -.19201369E+03 E0= -.19191356E+03  d E =-.384178E-01
       N       E                     dE             d eps       ncg     rms          rms(c)
DAV:   1    -0.192054502062E+03   -0.40810E-01   -0.29165E+00  8160   0.369E+00    0.439E-01
DAV:   2    -0.192060421083E+03   -0.59190E-02   -0.90625E-02 12120   0.937E-01    0.564E-01
DAV:   3    -0.192061399485E+03   -0.97840E-03   -0.19917E-02 12400   0.101E+00    0.662E-01
DAV:   4    -0.192056754144E+03    0.46453E-02   -0.78096E-03 12320   0.613E-01    0.176E-01
DAV:   5    -0.192056661206E+03    0.92938E-04   -0.23802E-03 11120   0.311E-01    0.192E-01
DAV:   6    -0.192056605163E+03    0.56043E-04   -0.20686E-03 12600   0.362E-01    0.171E-01
DAV:   7    -0.192056201886E+03    0.40328E-03   -0.63585E-04  8920   0.180E-01    0.663E-02
DAV:   8    -0.192056186845E+03    0.15041E-04   -0.18579E-04  6680   0.831E-02
  16 F= -.19205619E+03 E0= -.19195928E+03  d E =-.424920E-01
       N       E                     dE             d eps       ncg     rms          rms(c)
DAV:   1    -0.192043870635E+03    0.12331E-01   -0.22797E-01  8160   0.103E+00    0.114E-01
DAV:   2    -0.192044300834E+03   -0.43020E-03   -0.61315E-03 11440   0.259E-01    0.144E-01
DAV:   3    -0.192044287537E+03    0.13297E-04   -0.13056E-03 11080   0.254E-01    0.156E-01
DAV:   4    -0.192044139479E+03    0.14806E-03   -0.77036E-04  8560   0.177E-01    0.122E-01
DAV:   5    -0.192044033362E+03    0.10612E-03   -0.41962E-04  8080   0.144E-01    0.697E-02
DAV:   6    -0.192044026529E+03    0.68331E-05   -0.19951E-04  6760   0.876E-02
  17 F= -.19204403E+03 E0= -.19194626E+03  d E =0.121603E-01
       N       E                     dE             d eps       ncg     rms          rms(c)
DAV:   1    -0.192044884684E+03   -0.85132E-03   -0.14102E-01  8160   0.828E-01    0.146E-01
DAV:   2    -0.192045108524E+03   -0.22384E-03   -0.70924E-03 10000   0.320E-01    0.203E-01
DAV:   3    -0.192045235886E+03   -0.12736E-03   -0.27754E-03 11520   0.355E-01    0.258E-01
DAV:   4    -0.192044689362E+03    0.54652E-03   -0.15509E-03 10120   0.245E-01    0.115E-01
DAV:   5    -0.192044710668E+03   -0.21306E-04   -0.67709E-04  9080   0.193E-01
  18 F= -.19204471E+03 E0= -.19194684E+03  d E =-.684139E-03
       N       E                     dE             d eps       ncg     rms          rms(c)
DAV:   1    -0.192081261639E+03   -0.36572E-01   -0.19798E+00  8160   0.307E+00    0.366E-01
DAV:   2    -0.192084337883E+03   -0.30762E-02   -0.58912E-02 12760   0.762E-01    0.387E-01
DAV:   3    -0.192085216252E+03   -0.87837E-03   -0.11220E-02 12160   0.779E-01    0.507E-01
DAV:   4    -0.192083114369E+03    0.21019E-02   -0.68259E-03 10840   0.560E-01    0.324E-01
DAV:   5    -0.192082654155E+03    0.46021E-03   -0.43182E-03 12160   0.450E-01    0.266E-01
DAV:   6    -0.192082302156E+03    0.35200E-03   -0.25711E-03 10720   0.304E-01    0.186E-01
DAV:   7    -0.192082167555E+03    0.13460E-03   -0.13684E-03 10120   0.269E-01    0.149E-01
DAV:   8    -0.192081902668E+03    0.26489E-03   -0.38393E-04  8080   0.137E-01    0.193E-02
DAV:   9    -0.192081905581E+03   -0.29137E-05   -0.44340E-05  6360   0.230E-02
  19 F= -.19208191E+03 E0= -.19198702E+03  d E =-.371949E-01
       N       E                     dE             d eps       ncg     rms          rms(c)
DAV:   1    -0.192042190046E+03    0.39713E-01   -0.24211E+00  8160   0.336E+00    0.385E-01
DAV:   2    -0.192047904355E+03   -0.57143E-02   -0.63836E-02 13320   0.911E-01    0.648E-01
DAV:   3    -0.192045919346E+03    0.19850E-02   -0.17888E-02 11400   0.901E-01    0.490E-01
DAV:   4    -0.192044916963E+03    0.10024E-02   -0.77526E-03 12360   0.568E-01    0.416E-01
DAV:   5    -0.192043542752E+03    0.13742E-02   -0.50024E-03 11080   0.487E-01    0.240E-01
DAV:   6    -0.192043797080E+03   -0.25433E-03   -0.29909E-03 11320   0.352E-01    0.281E-01
DAV:   7    -0.192043136852E+03    0.66023E-03   -0.18514E-03 10080   0.319E-01    0.985E-02
DAV:   8    -0.192042977089E+03    0.15976E-03   -0.28844E-04  8000   0.982E-02    0.170E-02
DAV:   9    -0.192042978071E+03   -0.98280E-06   -0.47198E-05  7960   0.235E-02
  20 F= -.19204298E+03 E0= -.19194449E+03  d E =0.389275E-01
       N       E                     dE             d eps       ncg     rms          rms(c)
DAV:   1    -0.192009739013E+03    0.33238E-01   -0.35569E+00  8160   0.407E+00    0.478E-01
DAV:   2    -0.192020636586E+03   -0.10898E-01   -0.99962E-02 12560   0.129E+00    0.926E-01
DAV:   3    -0.192014929934E+03    0.57067E-02   -0.29451E-02 12440   0.121E+00    0.570E-01
DAV:   4    -0.192012261951E+03    0.26680E-02   -0.82532E-03 11440   0.537E-01    0.294E-01
DAV:   5    -0.192012758360E+03   -0.49641E-03   -0.67117E-03 12400   0.531E-01    0.454E-01
DAV:   6    -0.192011475768E+03    0.12826E-02   -0.57182E-03 11640   0.445E-01    0.231E-01
DAV:   7    -0.192011445454E+03    0.30314E-04   -0.23572E-03 10080   0.344E-01    0.199E-01
DAV:   8    -0.192010924389E+03    0.52106E-03   -0.75187E-04  9520   0.199E-01    0.219E-02
DAV:   9    -0.192010930932E+03   -0.65433E-05   -0.63933E-05  6280   0.283E-02
  21 F= -.19201093E+03 E0= -.19190928E+03  d E =0.320471E-01
       N       E                     dE             d eps       ncg     rms          rms(c)
DAV:   1    -0.192048351793E+03   -0.37427E-01   -0.32573E+00  8160   0.396E+00    0.502E-01
DAV:   2    -0.192051057380E+03   -0.27056E-02   -0.94092E-02 12680   0.898E-01    0.438E-01
DAV:   3    -0.192053895050E+03   -0.28377E-02   -0.19255E-02 12200   0.982E-01    0.724E-01
DAV:   4    -0.192048956021E+03    0.49390E-02   -0.13073E-02 11480   0.803E-01    0.356E-01
DAV:   5    -0.192048588227E+03    0.36779E-03   -0.62708E-03 10920   0.564E-01    0.344E-01
DAV:   6    -0.192047570500E+03    0.10177E-02   -0.36053E-03 11600   0.445E-01    0.157E-01
DAV:   7    -0.192047604017E+03   -0.33517E-04   -0.16111E-03 10200   0.237E-01    0.213E-01
DAV:   8    -0.192047208126E+03    0.39589E-03   -0.79843E-04  8720   0.175E-01    0.396E-02
DAV:   9    -0.192047203158E+03    0.49683E-05   -0.64728E-05  5960   0.349E-02
  22 F= -.19204720E+03 E0= -.19194804E+03  d E =-.362722E-01
       N       E                     dE             d eps       ncg     rms          rms(c)
DAV:   1    -0.192052343072E+03   -0.51349E-02   -0.94843E-02  8160   0.649E-01    0.734E-02
DAV:   2    -0.192052715034E+03   -0.37196E-03   -0.37087E-03 10400   0.220E-01    0.123E-01
DAV:   3    -0.192052621879E+03    0.93156E-04   -0.62826E-04 10800   0.191E-01
  23 F= -.19205262E+03 E0= -.19195402E+03  d E =-.541872E-02
       N       E                     dE             d eps       ncg     rms          rms(c)
DAV:   1    -0.192082712047E+03   -0.29997E-01   -0.16072E+00  8160   0.274E+00    0.326E-01
DAV:   2    -0.192086426920E+03   -0.37149E-02   -0.42174E-02 12520   0.767E-01    0.525E-01
DAV:   3    -0.192084821249E+03    0.16057E-02   -0.10918E-02 12120   0.733E-01    0.398E-01
DAV:   4    -0.192084799319E+03    0.21930E-04   -0.69149E-03 12360   0.521E-01    0.417E-01
DAV:   5    -0.192083317323E+03    0.14820E-02   -0.43233E-03 11480   0.452E-01    0.180E-01
DAV:   6    -0.192083586898E+03   -0.26957E-03   -0.19618E-03 10200   0.294E-01    0.242E-01
DAV:   7    -0.192083067893E+03    0.51900E-03   -0.13175E-03 10360   0.272E-01    0.774E-02
DAV:   8    -0.192082981445E+03    0.86448E-04   -0.16956E-04  6560   0.782E-02
  24 F= -.19208298E+03 E0= -.19198674E+03  d E =-.303596E-01
       N       E                     dE             d eps       ncg     rms          rms(c)
DAV:   1    -0.192060782568E+03    0.22285E-01   -0.79790E-01  8160   0.193E+00    0.229E-01
DAV:   2    -0.192062538805E+03   -0.17562E-02   -0.21906E-02 11760   0.561E-01    0.356E-01
DAV:   3    -0.192061971280E+03    0.56752E-03   -0.57882E-03 12280   0.552E-01    0.297E-01
DAV:   4    -0.192061296712E+03    0.67457E-03   -0.23065E-03 10480   0.309E-01    0.163E-01
DAV:   5    -0.192061230597E+03    0.66115E-04   -0.14461E-03 10120   0.264E-01    0.179E-01
DAV:   6    -0.192061075935E+03    0.15466E-03   -0.11587E-03  8960   0.209E-01    0.132E-01
DAV:   7    -0.192061027679E+03    0.48256E-04   -0.65024E-04  8480   0.173E-01
  25 F= -.19206103E+03 E0= -.19196282E+03  d E =0.219538E-01
       N       E                     dE             d eps       ncg     rms          rms(c)
DAV:   1    -0.192110335029E+03   -0.49259E-01   -0.36146E+00  8160   0.417E+00    0.528E-01
DAV:   2    -0.192114588385E+03   -0.42534E-02   -0.10649E-01 12280   0.109E+00    0.546E-01
DAV:   3    -0.192115071607E+03   -0.48322E-03   -0.20957E-02 10880   0.114E+00    0.620E-01
DAV:   4    -0.192111135749E+03    0.39359E-02   -0.10279E-02 11600   0.814E-01    0.370E-01
DAV:   5    -0.192110858319E+03    0.27743E-03   -0.62683E-03 10960   0.579E-01    0.388E-01
DAV:   6    -0.192109532299E+03    0.13260E-02   -0.40893E-03 11320   0.448E-01    0.149E-01
DAV:   7    -0.192109284232E+03    0.24807E-03   -0.10855E-03 10200   0.168E-01    0.112E-01
DAV:   8    -0.192109197184E+03    0.87049E-04   -0.45974E-04  8800   0.129E-01
  26 F= -.19210920E+03 E0= -.19201464E+03  d E =-.481695E-01
       N       E                     dE             d eps       ncg     rms          rms(c)
DAV:   1    -0.192115874846E+03   -0.65906E-02   -0.60354E-02  8160   0.540E-01    0.887E-02
DAV:   2    -0.192116137688E+03   -0.26284E-03   -0.25866E-03 11880   0.241E-01    0.173E-01
DAV:   3    -0.192115874704E+03    0.26298E-03   -0.73537E-04  9360   0.210E-01    0.773E-02
DAV:   4    -0.192115882207E+03   -0.75027E-05   -0.29959E-04  7560   0.125E-01
  27 F= -.19211588E+03 E0= -.19202224E+03  d E =-.668502E-02
       N       E                     dE             d eps       ncg     rms          rms(c)
DAV:   1    -0.192167202643E+03   -0.51328E-01   -0.31712E+00  8160   0.385E+00    0.453E-01
DAV:   2    -0.192173325844E+03   -0.61232E-02   -0.84739E-02 12320   0.981E-01    0.651E-01
DAV:   3    -0.192171834987E+03    0.14909E-02   -0.17970E-02 12400   0.103E+00    0.566E-01
DAV:   4    -0.192168817630E+03    0.30174E-02   -0.71592E-03 12320   0.599E-01    0.262E-01
DAV:   5    -0.192169069909E+03   -0.25228E-03   -0.44786E-03 11600   0.478E-01    0.346E-01
DAV:   6    -0.192168328340E+03    0.74157E-03   -0.38722E-03 12160   0.421E-01    0.216E-01
DAV:   7    -0.192168087773E+03    0.24057E-03   -0.16113E-03 10080   0.294E-01    0.156E-01
DAV:   8    -0.192167796701E+03    0.29107E-03   -0.49486E-04  8920   0.172E-01    0.250E-02
DAV:   9    -0.192167795416E+03    0.12846E-05   -0.52868E-05  6560   0.302E-02
  28 F= -.19216780E+03 E0= -.19207829E+03  d E =-.519132E-01
       N       E                     dE             d eps       ncg     rms          rms(c)
DAV:   1    -0.192166508935E+03    0.12878E-02   -0.35753E-03  8560   0.136E-01    0.234E-02
DAV:   2    -0.192166528248E+03   -0.19312E-04   -0.12717E-04  7240   0.670E-02
  29 F= -.19216653E+03 E0= -.19207713E+03  d E =0.126717E-02
       N       E                     dE             d eps       ncg     rms          rms(c)
DAV:   1    -0.192217781835E+03   -0.51273E-01   -0.29583E+00  8160   0.374E+00    0.445E-01
DAV:   2    -0.192227659229E+03   -0.98774E-02   -0.97676E-02 12640   0.120E+00    0.789E-01
DAV:   3    -0.192222943262E+03    0.47160E-02   -0.21321E-02 12360   0.116E+00    0.488E-01
DAV:   4    -0.192220548493E+03    0.23948E-02   -0.51200E-03 12240   0.504E-01    0.200E-01
DAV:   5    -0.192220144008E+03    0.40449E-03   -0.26055E-03 11880   0.327E-01    0.186E-01
DAV:   6    -0.192220190182E+03   -0.46174E-04   -0.18819E-03 12360   0.365E-01    0.180E-01
DAV:   7    -0.192219708378E+03    0.48180E-03   -0.67295E-04  9440   0.187E-01    0.444E-02
DAV:   8    -0.192219716684E+03   -0.83060E-05   -0.13688E-04  6680   0.802E-02
  30 F= -.19221972E+03 E0= -.19213318E+03  d E =-.531884E-01
       N       E                     dE             d eps       ncg     rms          rms(c)
DAV:   1    -0.192247020254E+03   -0.27312E-01   -0.78659E-01  8160   0.191E+00    0.243E-01
DAV:   2    -0.192251824844E+03   -0.48046E-02   -0.24886E-02 12520   0.819E-01    0.638E-01
DAV:   3    -0.192247539802E+03    0.42850E-02   -0.75627E-03 12520   0.726E-01    0.160E-01
DAV:   4    -0.192247312908E+03    0.22689E-03   -0.98099E-04 10120   0.167E-01    0.972E-02
DAV:   5    -0.192247233319E+03    0.79589E-04   -0.64637E-04 11360   0.140E-01
  31 F= -.19224723E+03 E0= -.19216205E+03  d E =-.275166E-01
       N       E                     dE             d eps       ncg     rms          rms(c)
DAV:   1    -0.192314503941E+03   -0.67191E-01   -0.54541E+00  8160   0.505E+00    0.631E-01
DAV:   2    -0.192343585529E+03   -0.29082E-01   -0.18262E-01 12920   0.203E+00    0.146E+00
DAV:   3    -0.192320662615E+03    0.22923E-01   -0.44562E-02 12360   0.178E+00    0.445E-01
DAV:   4    -0.192318761664E+03    0.19010E-02   -0.63958E-03 12480   0.525E-01    0.304E-01
DAV:   5    -0.192318421462E+03    0.34020E-03   -0.44650E-03 12240   0.559E-01    0.299E-01
DAV:   6    -0.192317845801E+03    0.57566E-03   -0.31668E-03 12000   0.451E-01    0.189E-01
DAV:   7    -0.192317492293E+03    0.35351E-03   -0.13869E-03 10400   0.267E-01    0.153E-01
DAV:   8    -0.192317243064E+03    0.24923E-03   -0.43242E-04  8920   0.166E-01    0.291E-02
DAV:   9    -0.192317241705E+03    0.13590E-05   -0.56401E-05  6160   0.327E-02
  32 F= -.19231724E+03 E0= -.19223415E+03  d E =-.700084E-01
       N       E                     dE             d eps       ncg     rms          rms(c)
DAV:   1    -0.192404895811E+03   -0.87653E-01   -0.22748E+01  8160   0.104E+01    0.124E+00
DAV:   2    -0.192508190641E+03   -0.10329E+00   -0.82519E-01 11760   0.384E+00    0.251E+00
DAV:   3    -0.192445177339E+03    0.63013E-01   -0.17906E-01 12280   0.349E+00    0.100E+00
DAV:   4    -0.192432674765E+03    0.12503E-01   -0.27519E-02 12560   0.108E+00    0.494E-01
DAV:   5    -0.192430514176E+03    0.21606E-02   -0.16765E-02 11720   0.770E-01    0.471E-01
DAV:   6    -0.192430533394E+03   -0.19217E-04   -0.12436E-02 12160   0.948E-01    0.470E-01
DAV:   7    -0.192427206012E+03    0.33274E-02   -0.48289E-03 12760   0.544E-01    0.668E-02
DAV:   8    -0.192427298243E+03   -0.92231E-04   -0.64753E-04 10760   0.156E-01
  33 F= -.19242730E+03 E0= -.19234618E+03  d E =-.110057E+00
       N       E                     dE             d eps       ncg     rms          rms(c)
DAV:   1    -0.192433827551E+03   -0.66215E-02   -0.40466E-01  8160   0.142E+00    0.281E-01
DAV:   2    -0.192434784292E+03   -0.95674E-03   -0.25353E-02 10680   0.688E-01    0.371E-01
DAV:   3    -0.192433940993E+03    0.84330E-03   -0.57619E-03 11520   0.640E-01    0.269E-01
DAV:   4    -0.192433071975E+03    0.86902E-03   -0.25059E-03 11600   0.391E-01    0.173E-01
DAV:   5    -0.192433163720E+03   -0.91744E-04   -0.16360E-03 11760   0.336E-01    0.206E-01
DAV:   6    -0.192432667364E+03    0.49636E-03   -0.97053E-04 10240   0.248E-01    0.415E-02
DAV:   7    -0.192432658232E+03    0.91321E-05   -0.12102E-04  6560   0.512E-02
  34 F= -.19243266E+03 E0= -.19235258E+03  d E =-.535999E-02
       N       E                     dE             d eps       ncg     rms          rms(c)
DAV:   1    -0.192447834444E+03   -0.15167E-01   -0.86475E-01  8160   0.202E+00    0.288E-01
DAV:   2    -0.192452549780E+03   -0.47153E-02   -0.41709E-02 11240   0.895E-01    0.560E-01
DAV:   3    -0.192449523208E+03    0.30266E-02   -0.91129E-03 12480   0.812E-01    0.245E-01
DAV:   4    -0.192448738460E+03    0.78475E-03   -0.15396E-03 11680   0.292E-01    0.115E-01
DAV:   5    -0.192448754914E+03   -0.16454E-04   -0.94715E-04 10680   0.247E-01
  35 F= -.19244875E+03 E0= -.19236893E+03  d E =-.160967E-01
       N       E                     dE             d eps       ncg     rms          rms(c)
DAV:   1    -0.192468721859E+03   -0.19983E-01   -0.38997E+00  8160   0.422E+00    0.576E-01
DAV:   2    -0.192484335821E+03   -0.15614E-01   -0.17173E-01 11200   0.161E+00    0.938E-01
DAV:   3    -0.192477673283E+03    0.66625E-02   -0.31471E-02 12360   0.151E+00    0.551E-01
DAV:   4    -0.192473132043E+03    0.45412E-02   -0.62488E-03 12320   0.605E-01    0.179E-01
DAV:   5    -0.192474063701E+03   -0.93166E-03   -0.38864E-03 12080   0.497E-01    0.337E-01
DAV:   6    -0.192472747401E+03    0.13163E-02   -0.31685E-03 12800   0.454E-01    0.953E-02
DAV:   7    -0.192472587889E+03    0.15951E-03   -0.44352E-04  9160   0.981E-02    0.299E-02
DAV:   8    -0.192472571461E+03    0.16427E-04   -0.70198E-05  7760   0.338E-02
  36 F= -.19247257E+03 E0= -.19239359E+03  d E =-.238165E-01
       N       E                     dE             d eps       ncg     rms          rms(c)
DAV:   1    -0.192474478769E+03   -0.18909E-02   -0.13337E-01  8240   0.885E-01    0.210E-01
DAV:   2    -0.192473694029E+03    0.78474E-03   -0.61345E-03 10800   0.328E-01    0.217E-01
DAV:   3    -0.192473839951E+03   -0.14592E-03   -0.30750E-03 11680   0.479E-01    0.272E-01
DAV:   4    -0.192472961025E+03    0.87893E-03   -0.16804E-03 11600   0.349E-01    0.956E-02
DAV:   5    -0.192472895069E+03    0.65956E-04   -0.64538E-04 10280   0.166E-01
  37 F= -.19247290E+03 E0= -.19239464E+03  d E =-.323608E-03
       N       E                     dE             d eps       ncg     rms          rms(c)
DAV:   1    -0.192477647251E+03   -0.46862E-02   -0.41007E-01  8160   0.135E+00    0.145E-01
DAV:   2    -0.192479382563E+03   -0.17353E-02   -0.18315E-02 11480   0.465E-01    0.207E-01
DAV:   3    -0.192479187665E+03    0.19490E-03   -0.23268E-03 12640   0.390E-01    0.170E-01
DAV:   4    -0.192478838488E+03    0.34918E-03   -0.48946E-04  8960   0.195E-01    0.525E-02
DAV:   5    -0.192478825545E+03    0.12942E-04   -0.12986E-04  6240   0.678E-02
  38 F= -.19247883E+03 E0= -.19240122E+03  d E =-.593048E-02
       N       E                     dE             d eps       ncg     rms          rms(c)
DAV:   1    -0.192482009869E+03   -0.31714E-02   -0.14750E-01  8160   0.820E-01    0.138E-01
DAV:   2    -0.192483492109E+03   -0.14822E-02   -0.92997E-03 11720   0.543E-01    0.322E-01
DAV:   3    -0.192482208972E+03    0.12831E-02   -0.22578E-03 12000   0.411E-01    0.688E-02
DAV:   4    -0.192482132718E+03    0.76254E-04   -0.17334E-04  6280   0.918E-02
  39 F= -.19248213E+03 E0= -.19240471E+03  d E =-.330717E-02
       N       E                     dE             d eps       ncg     rms          rms(c)
DAV:   1    -0.192487146477E+03   -0.49375E-02   -0.14195E+00  8160   0.254E+00    0.317E-01
DAV:   2    -0.192493957769E+03   -0.68113E-02   -0.64855E-02 11480   0.957E-01    0.552E-01
DAV:   3    -0.192491299101E+03    0.26587E-02   -0.10725E-02 12560   0.869E-01    0.302E-01
DAV:   4    -0.192490019583E+03    0.12795E-02   -0.17413E-03 12360   0.310E-01    0.831E-02
DAV:   5    -0.192490071953E+03   -0.52371E-04   -0.10162E-03 10640   0.115E-01    0.860E-02
DAV:   6    -0.192490006026E+03    0.65927E-04   -0.52512E-04  9960   0.155E-01
  40 F= -.19249001E+03 E0= -.19241337E+03  d E =-.787331E-02
       N       E                     dE             d eps       ncg     rms          rms(c)
DAV:   1    -0.192491875631E+03   -0.18037E-02   -0.31721E-01  8160   0.120E+00    0.157E-01
DAV:   2    -0.192494001142E+03   -0.21255E-02   -0.16289E-02 11480   0.586E-01    0.338E-01
DAV:   3    -0.192492762059E+03    0.12391E-02   -0.30024E-03 12560   0.458E-01    0.110E-01
DAV:   4    -0.192492636957E+03    0.12510E-03   -0.35922E-04  8680   0.151E-01    0.737E-02
DAV:   5    -0.192492642511E+03   -0.55543E-05   -0.26943E-04  8240   0.138E-01
  41 F= -.19249264E+03 E0= -.19241654E+03  d E =-.263649E-02
       N       E                     dE             d eps       ncg     rms          rms(c)
DAV:   1    -0.192493335041E+03   -0.69808E-03   -0.68282E-02  8160   0.555E-01    0.727E-02
DAV:   2    -0.192493524986E+03   -0.18994E-03   -0.29515E-03 12520   0.165E-01    0.639E-02
DAV:   3    -0.192493503306E+03    0.21680E-04   -0.30101E-04  9080   0.111E-01
  42 F= -.19249350E+03 E0= -.19241773E+03  d E =-.860794E-03
       N       E                     dE             d eps       ncg     rms          rms(c)
DAV:   1    -0.192494350290E+03   -0.82530E-03   -0.11595E-01  8160   0.727E-01    0.837E-02
DAV:   2    -0.192494809663E+03   -0.45937E-03   -0.48874E-03 12880   0.227E-01    0.117E-01
DAV:   3    -0.192494719293E+03    0.90370E-04   -0.60358E-04 10880   0.208E-01
  43 F= -.19249472E+03 E0= -.19241922E+03  d E =-.121599E-02
       N       E                     dE             d eps       ncg     rms          rms(c)
DAV:   1    -0.192495311241E+03   -0.50158E-03   -0.84871E-02  8160   0.625E-01    0.821E-02
DAV:   2    -0.192495622342E+03   -0.31110E-03   -0.35805E-03 13320   0.225E-01    0.109E-01
DAV:   3    -0.192495517778E+03    0.10456E-03   -0.48809E-04 10000   0.185E-01    0.743E-02
DAV:   4    -0.192495462498E+03    0.55280E-04   -0.16288E-04  6840   0.101E-01
  44 F= -.19249546E+03 E0= -.19242015E+03  d E =-.743205E-03
