   27   27  100    1
  0.9710400E+02  0.1002848E-08  0.1002848E-08  0.3000000E-08  0.5000000E-15
  1.000000000000000E-004
  CAR 
 unknown system                          
    159     34    120
 
  0.0000000E+00  0.0000000E+00  0.0000000E+00  0.1562500E-01
    1      -17.798960   1.000000
    2      -16.693156   1.000000
    3      -16.671236   1.000000
    4      -16.582984   1.000000
    5      -16.533471   1.000000
    6      -16.418473   1.000000
    7      -16.407683   1.000000
    8      -16.326436   1.000000
    9      -16.159239   1.000000
   10      -16.078615   1.000000
   11      -16.066119   1.000000
   12      -15.946624   1.000000
   13      -15.924888   1.000000
   14      -15.804451   1.000000
   15      -15.581836   1.000000
   16      -15.522582   1.000000
   17      -15.413684   1.000000
   18      -15.178444   1.000000
   19       -9.309834   1.000000
   20       -9.006879   1.000000
   21       -8.898529   1.000000
   22       -8.782973   1.000000
   23       -8.761454   1.000000
   24       -8.696504   1.000000
   25       -8.644726   1.000000
   26       -8.595870   1.000000
   27       -8.513706   1.000000
   28       -8.460276   1.000000
   29       -8.417904   1.000000
   30       -8.385662   1.000000
   31       -8.256105   1.000000
   32       -8.197033   1.000000
   33       -8.178895   1.000000
   34       -8.089362   1.000000
   35       -7.828016   1.000000
   36       -7.732587   1.000000
   37       -7.679988   1.000000
   38       -7.551104   1.000000
   39       -7.501314   1.000000
   40       -7.409309   1.000000
   41       -7.268571   1.000000
   42       -7.221379   1.000000
   43       -7.172132   1.000000
   44       -6.857966   1.000000
   45       -6.848951   1.000000
   46       -6.748061   1.000000
   47       -6.673998   1.000000
   48       -6.598433   1.000000
   49       -6.546663   1.000000
   50       -6.504868   1.000000
   51       -6.452008   1.000000
   52       -6.390756   1.000000
   53       -6.335457   1.000000
   54       -6.258067   1.000000
   55       -6.224848   1.000000
   56       -6.147992   1.000000
   57       -6.016535   1.000000
   58       -5.974807   1.000000
   59       -5.884124   1.000000
   60       -5.570330   1.000000
   61       -5.434022   1.000000
   62       -5.339747   1.000000
   63       -5.284116   1.000000
   64       -5.197528   1.000000
   65       -5.090136   1.000000
   66       -4.987824   1.000000
   67       -4.953369   1.000000
   68       -4.905868   1.000000
   69       -4.800580   1.000000
   70       -4.719191   1.000000
   71       -4.629613   1.000000
   72       -4.599078   1.000000
   73       -4.533476   1.000000
   74       -4.380070   1.000000
   75       -4.145004   1.000000
   76       -3.958980   0.999999
   77       -3.684851   0.998332
   78       -3.553587   0.977614
   79       -3.499844   0.948107
   80       -3.428402   0.868984
   81       -3.356654   0.730479
   82       -3.046217   0.056955
   83       -2.767238   0.000190
   84       -2.642591   0.000005
   85       -2.560361   0.000000
   86       -2.390561   0.000000
   87       -2.306777   0.000000
   88       -2.298250   0.000000
   89       -2.188840   0.000000
   90       -2.076981   0.000000
   91       -1.899896   0.000000
   92       -1.751176   0.000000
   93       -1.446238   0.000000
   94       -1.388343   0.000000
   95       -1.163718   0.000000
   96       -1.019891   0.000000
   97       -0.905553   0.000000
   98       -0.829547   0.000000
   99       -0.791084   0.000000
  100       -0.563988   0.000000
  101       -0.555969   0.000000
  102       -0.505250   0.000000
  103       -0.395943   0.000000
  104       -0.310208   0.000000
  105       -0.208522   0.000000
  106       -0.174802   0.000000
  107       -0.090137   0.000000
  108       -0.024147   0.000000
  109        0.105195   0.000000
  110        0.235287   0.000000
  111        0.272278   0.000000
  112        0.499844   0.000000
  113        0.640834   0.000000
  114        0.708773   0.000000
  115        0.934092   0.000000
  116        1.112918   0.000000
  117        1.249449   0.000000
  118        1.635310   0.000000
  119        1.832028   0.000000
  120        2.148374   0.000000
 
  0.1250000E+00  0.2775558E-16  0.0000000E+00  0.3125000E-01
    1      -17.773967   1.000000
    2      -16.787716   1.000000
    3      -16.692411   1.000000
    4      -16.600924   1.000000
    5      -16.536964   1.000000
    6      -16.436096   1.000000
    7      -16.380157   1.000000
    8      -16.279486   1.000000
    9      -16.172397   1.000000
   10      -16.087910   1.000000
   11      -15.987166   1.000000
   12      -15.945465   1.000000
   13      -15.888312   1.000000
   14      -15.797436   1.000000
   15      -15.595070   1.000000
   16      -15.529116   1.000000
   17      -15.422319   1.000000
   18      -15.184745   1.000000
   19       -9.300914   1.000000
   20       -9.168090   1.000000
   21       -9.009227   1.000000
   22       -8.916497   1.000000
   23       -8.779402   1.000000
   24       -8.699120   1.000000
   25       -8.645454   1.000000
   26       -8.575368   1.000000
   27       -8.501471   1.000000
   28       -8.426323   1.000000
   29       -8.385770   1.000000
   30       -8.319642   1.000000
   31       -8.251896   1.000000
   32       -8.094811   1.000000
   33       -8.055763   1.000000
   34       -7.936935   1.000000
   35       -7.836414   1.000000
   36       -7.735903   1.000000
   37       -7.644595   1.000000
   38       -7.575082   1.000000
   39       -7.480370   1.000000
   40       -7.390866   1.000000
   41       -7.261971   1.000000
   42       -7.228690   1.000000
   43       -7.176720   1.000000
   44       -6.940810   1.000000
   45       -6.827897   1.000000
   46       -6.751438   1.000000
   47       -6.685282   1.000000
   48       -6.626220   1.000000
   49       -6.555746   1.000000
   50       -6.520446   1.000000
   51       -6.465394   1.000000
   52       -6.369348   1.000000
   53       -6.335371   1.000000
   54       -6.253989   1.000000
   55       -6.217811   1.000000
   56       -6.165349   1.000000
   57       -6.003554   1.000000
   58       -5.945975   1.000000
   59       -5.824135   1.000000
   60       -5.536197   1.000000
   61       -5.461943   1.000000
   62       -5.365281   1.000000
   63       -5.301108   1.000000
   64       -5.252602   1.000000
   65       -5.194097   1.000000
   66       -5.036672   1.000000
   67       -5.000641   1.000000
   68       -4.921843   1.000000
   69       -4.890997   1.000000
   70       -4.696633   1.000000
   71       -4.579375   1.000000
   72       -4.516738   1.000000
   73       -4.438947   1.000000
   74       -4.299984   1.000000
   75       -4.128723   1.000000
   76       -3.901404   0.999996
   77       -3.803392   0.999919
   78       -3.663400   0.997309
   79       -3.562466   0.980754
   80       -3.415467   0.848527
   81       -3.233353   0.398355
   82       -3.022849   0.040397
   83       -2.756281   0.000141
   84       -2.630122   0.000003
   85       -2.552910   0.000000
   86       -2.403293   0.000000
   87       -2.291377   0.000000
   88       -2.258378   0.000000
   89       -2.212257   0.000000
   90       -2.066197   0.000000
   91       -1.876966   0.000000
   92       -1.752842   0.000000
   93       -1.432547   0.000000
   94       -1.379519   0.000000
   95       -1.178886   0.000000
   96       -1.025944   0.000000
   97       -0.916025   0.000000
   98       -0.849004   0.000000
   99       -0.801570   0.000000
  100       -0.635120   0.000000
  101       -0.609086   0.000000
  102       -0.567912   0.000000
  103       -0.440122   0.000000
  104       -0.340523   0.000000
  105       -0.283726   0.000000
  106       -0.202053   0.000000
  107       -0.109077   0.000000
  108       -0.054446   0.000000
  109        0.146425   0.000000
  110        0.187876   0.000000
  111        0.277277   0.000000
  112        0.545957   0.000000
  113        0.698924   0.000000
  114        0.772332   0.000000
  115        0.951797   0.000000
  116        1.133573   0.000000
  117        1.225895   0.000000
  118        1.679700   0.000000
  119        1.871272   0.000000
  120        2.183460   0.000000
 
  0.2500000E+00  0.5551115E-16  0.0000000E+00  0.3125000E-01
    1      -17.700306   1.000000
    2      -16.987646   1.000000
    3      -16.716449   1.000000
    4      -16.624798   1.000000
    5      -16.588866   1.000000
    6      -16.430302   1.000000
    7      -16.334156   1.000000
    8      -16.225713   1.000000
    9      -16.152078   1.000000
   10      -16.074302   1.000000
   11      -15.966710   1.000000
   12      -15.877971   1.000000
   13      -15.803675   1.000000
   14      -15.770539   1.000000
   15      -15.621634   1.000000
   16      -15.554085   1.000000
   17      -15.441358   1.000000
   18      -15.199655   1.000000
   19       -9.499184   1.000000
   20       -9.234845   1.000000
   21       -9.157589   1.000000
   22       -9.016682   1.000000
   23       -8.890837   1.000000
   24       -8.755844   1.000000
   25       -8.654605   1.000000
   26       -8.528292   1.000000
   27       -8.448273   1.000000
   28       -8.362740   1.000000
   29       -8.336784   1.000000
   30       -8.242671   1.000000
   31       -8.134293   1.000000
   32       -8.060384   1.000000
   33       -7.939113   1.000000
   34       -7.849047   1.000000
   35       -7.761221   1.000000
   36       -7.638650   1.000000
   37       -7.567673   1.000000
   38       -7.537152   1.000000
   39       -7.419007   1.000000
   40       -7.385151   1.000000
   41       -7.312127   1.000000
   42       -7.198492   1.000000
   43       -7.096995   1.000000
   44       -6.941767   1.000000
   45       -6.882095   1.000000
   46       -6.783782   1.000000
   47       -6.692708   1.000000
   48       -6.652121   1.000000
   49       -6.608951   1.000000
   50       -6.533705   1.000000
   51       -6.439631   1.000000
   52       -6.402432   1.000000
   53       -6.293189   1.000000
   54       -6.258769   1.000000
   55       -6.172754   1.000000
   56       -6.087788   1.000000
   57       -6.028315   1.000000
   58       -5.878350   1.000000
   59       -5.772353   1.000000
   60       -5.664589   1.000000
   61       -5.594047   1.000000
   62       -5.525778   1.000000
   63       -5.394776   1.000000
   64       -5.302990   1.000000
   65       -5.262866   1.000000
   66       -5.084135   1.000000
   67       -5.040802   1.000000
   68       -4.933151   1.000000
   69       -4.830043   1.000000
   70       -4.704915   1.000000
   71       -4.510742   1.000000
   72       -4.412512   1.000000
   73       -4.327058   1.000000
   74       -4.202842   1.000000
   75       -4.094638   1.000000
   76       -4.045999   1.000000
   77       -3.914515   0.999997
   78       -3.723831   0.999338
   79       -3.529670   0.966944
   80       -3.383972   0.790290
   81       -3.139214   0.177933
   82       -2.974940   0.018541
   83       -2.740977   0.000092
   84       -2.618089   0.000002
   85       -2.538475   0.000000
   86       -2.416885   0.000000
   87       -2.286493   0.000000
   88       -2.219551   0.000000
   89       -2.172064   0.000000
   90       -2.024496   0.000000
   91       -1.834101   0.000000
   92       -1.754247   0.000000
   93       -1.447420   0.000000
   94       -1.320087   0.000000
   95       -1.213008   0.000000
   96       -1.099479   0.000000
   97       -0.956323   0.000000
   98       -0.891782   0.000000
   99       -0.830969   0.000000
  100       -0.774746   0.000000
  101       -0.711267   0.000000
  102       -0.672380   0.000000
  103       -0.498619   0.000000
  104       -0.448481   0.000000
  105       -0.346691   0.000000
  106       -0.317210   0.000000
  107       -0.190749   0.000000
  108       -0.100352   0.000000
  109        0.064572   0.000000
  110        0.186331   0.000000
  111        0.341087   0.000000
  112        0.583235   0.000000
  113        0.754417   0.000000
  114        0.927999   0.000000
  115        1.026696   0.000000
  116        1.173494   0.000000
  117        1.225187   0.000000
  118        1.802956   0.000000
  119        1.983274   0.000000
  120        2.287506   0.000000
 
  0.3750000E+00  0.0000000E+00  0.0000000E+00  0.3125000E-01
    1      -17.583693   1.000000
    2      -17.196678   1.000000
    3      -16.747851   1.000000
    4      -16.645493   1.000000
    5      -16.603210   1.000000
    6      -16.447391   1.000000
    7      -16.297759   1.000000
    8      -16.213459   1.000000
    9      -16.100731   1.000000
   10      -16.047396   1.000000
   11      -15.931460   1.000000
   12      -15.851222   1.000000
   13      -15.759080   1.000000
   14      -15.733403   1.000000
   15      -15.629347   1.000000
   16      -15.584757   1.000000
   17      -15.455565   1.000000
   18      -15.213573   1.000000
   19       -9.712870   1.000000
   20       -9.330224   1.000000
   21       -9.137060   1.000000
   22       -9.091864   1.000000
   23       -8.951735   1.000000
   24       -8.787514   1.000000
   25       -8.611789   1.000000
   26       -8.509176   1.000000
   27       -8.443428   1.000000
   28       -8.330245   1.000000
   29       -8.277319   1.000000
   30       -8.195893   1.000000
   31       -8.093194   1.000000
   32       -8.045952   1.000000
   33       -7.924754   1.000000
   34       -7.813726   1.000000
   35       -7.749547   1.000000
   36       -7.671795   1.000000
   37       -7.591569   1.000000
   38       -7.437956   1.000000
   39       -7.325195   1.000000
   40       -7.291685   1.000000
   41       -7.197529   1.000000
   42       -7.139619   1.000000
   43       -7.049104   1.000000
   44       -6.945939   1.000000
   45       -6.869215   1.000000
   46       -6.803030   1.000000
   47       -6.717321   1.000000
   48       -6.664010   1.000000
   49       -6.544274   1.000000
   50       -6.469621   1.000000
   51       -6.404508   1.000000
   52       -6.319355   1.000000
   53       -6.266194   1.000000
   54       -6.209628   1.000000
   55       -6.189092   1.000000
   56       -6.105957   1.000000
   57       -6.005507   1.000000
   58       -5.962045   1.000000
   59       -5.902447   1.000000
   60       -5.785116   1.000000
   61       -5.751682   1.000000
   62       -5.612376   1.000000
   63       -5.551189   1.000000
   64       -5.333749   1.000000
   65       -5.231769   1.000000
   66       -5.071068   1.000000
   67       -5.051111   1.000000
   68       -4.882948   1.000000
   69       -4.798493   1.000000
   70       -4.684889   1.000000
   71       -4.647124   1.000000
   72       -4.440698   1.000000
   73       -4.283292   1.000000
   74       -4.173457   1.000000
   75       -4.089304   1.000000
   76       -4.037494   1.000000
   77       -3.890792   0.999994
   78       -3.666264   0.997473
   79       -3.527225   0.965650
   80       -3.364693   0.748925
   81       -3.055471   0.064833
   82       -2.932915   0.008609
   83       -2.736893   0.000082
   84       -2.644696   0.000005
   85       -2.515387   0.000000
   86       -2.418081   0.000000
   87       -2.293662   0.000000
   88       -2.186079   0.000000
   89       -2.127350   0.000000
   90       -1.942901   0.000000
   91       -1.804550   0.000000
   92       -1.728763   0.000000
   93       -1.497113   0.000000
   94       -1.295875   0.000000
   95       -1.243304   0.000000
   96       -1.172712   0.000000
   97       -1.037075   0.000000
   98       -0.990011   0.000000
   99       -0.887131   0.000000
  100       -0.816367   0.000000
  101       -0.759260   0.000000
  102       -0.716814   0.000000
  103       -0.567766   0.000000
  104       -0.526438   0.000000
  105       -0.484397   0.000000
  106       -0.382273   0.000000
  107       -0.249232   0.000000
  108       -0.156639   0.000000
  109        0.005394   0.000000
  110        0.182220   0.000000
  111        0.348544   0.000000
  112        0.605539   0.000000
  113        0.797779   0.000000
  114        1.014717   0.000000
  115        1.113466   0.000000
  116        1.198480   0.000000
  117        1.303863   0.000000
  118        1.987075   0.000000
  119        2.156181   0.000000
  120        2.456470   0.000000
 
  0.5000000E+00  0.1110223E-15  0.0000000E+00  0.1562500E-01
    1      -17.475548   1.000000
    2      -17.337821   1.000000
    3      -16.760501   1.000000
    4      -16.658178   1.000000
    5      -16.598033   1.000000
    6      -16.458686   1.000000
    7      -16.283269   1.000000
    8      -16.216354   1.000000
    9      -16.086432   1.000000
   10      -16.016334   1.000000
   11      -15.918301   1.000000
   12      -15.836331   1.000000
   13      -15.753182   1.000000
   14      -15.726736   1.000000
   15      -15.649042   1.000000
   16      -15.578285   1.000000
   17      -15.458421   1.000000
   18      -15.218752   1.000000
   19       -9.790538   1.000000
   20       -9.371271   1.000000
   21       -9.155843   1.000000
   22       -9.093315   1.000000
   23       -8.957459   1.000000
   24       -8.757683   1.000000
   25       -8.589110   1.000000
   26       -8.581010   1.000000
   27       -8.441597   1.000000
   28       -8.307499   1.000000
   29       -8.247948   1.000000
   30       -8.168134   1.000000
   31       -8.045512   1.000000
   32       -8.036408   1.000000
   33       -7.921712   1.000000
   34       -7.818608   1.000000
   35       -7.782020   1.000000
   36       -7.748387   1.000000
   37       -7.600704   1.000000
   38       -7.415922   1.000000
   39       -7.336667   1.000000
   40       -7.196820   1.000000
   41       -7.146647   1.000000
   42       -7.060596   1.000000
   43       -7.020906   1.000000
   44       -6.908197   1.000000
   45       -6.865411   1.000000
   46       -6.760848   1.000000
   47       -6.678995   1.000000
   48       -6.619497   1.000000
   49       -6.570083   1.000000
   50       -6.480679   1.000000
   51       -6.458667   1.000000
   52       -6.330800   1.000000
   53       -6.262609   1.000000
   54       -6.228559   1.000000
   55       -6.163575   1.000000
   56       -6.102277   1.000000
   57       -6.048854   1.000000
   58       -5.934019   1.000000
   59       -5.896888   1.000000
   60       -5.811250   1.000000
   61       -5.787109   1.000000
   62       -5.585859   1.000000
   63       -5.567728   1.000000
   64       -5.435210   1.000000
   65       -5.356591   1.000000
   66       -5.069116   1.000000
   67       -5.045051   1.000000
   68       -4.860957   1.000000
   69       -4.819270   1.000000
   70       -4.746073   1.000000
   71       -4.603561   1.000000
   72       -4.431528   1.000000
   73       -4.261069   1.000000
   74       -4.243769   1.000000
   75       -4.053833   1.000000
   76       -4.008102   1.000000
   77       -3.833134   0.999966
   78       -3.622229   0.993652
   79       -3.569809   0.983060
   80       -3.354713   0.725925
   81       -3.010268   0.033249
   82       -2.912443   0.005756
   83       -2.741645   0.000094
   84       -2.668243   0.000011
   85       -2.505675   0.000000
   86       -2.411103   0.000000
   87       -2.293364   0.000000
   88       -2.171278   0.000000
   89       -2.118163   0.000000
   90       -1.904053   0.000000
   91       -1.798527   0.000000
   92       -1.688824   0.000000
   93       -1.535673   0.000000
   94       -1.322487   0.000000
   95       -1.271293   0.000000
   96       -1.157602   0.000000
   97       -1.080430   0.000000
   98       -1.042551   0.000000
   99       -0.915487   0.000000
  100       -0.815322   0.000000
  101       -0.755893   0.000000
  102       -0.728174   0.000000
  103       -0.616744   0.000000
  104       -0.561494   0.000000
  105       -0.539952   0.000000
  106       -0.402302   0.000000
  107       -0.269318   0.000000
  108       -0.181598   0.000000
  109       -0.012477   0.000000
  110        0.176812   0.000000
  111        0.345435   0.000000
  112        0.612500   0.000000
  113        0.815250   0.000000
  114        1.028458   0.000000
  115        1.149764   0.000000
  116        1.220999   0.000000
  117        1.341308   0.000000
  118        2.207558   0.000000
  119        2.232579   0.000000
  120        2.371837   0.000000
 
  0.0000000E+00  0.1250000E+00  0.0000000E+00  0.3125000E-01
    1      -17.774557   1.000000
    2      -16.781713   1.000000
    3      -16.675107   1.000000
    4      -16.633028   1.000000
    5      -16.561011   1.000000
    6      -16.399577   1.000000
    7      -16.356988   1.000000
    8      -16.306667   1.000000
    9      -16.145605   1.000000
   10      -16.086248   1.000000
   11      -16.014573   1.000000
   12      -15.929784   1.000000
   13      -15.909038   1.000000
   14      -15.792317   1.000000
   15      -15.599357   1.000000
   16      -15.535200   1.000000
   17      -15.416435   1.000000
   18      -15.180905   1.000000
   19       -9.305127   1.000000
   20       -9.144675   1.000000
   21       -9.018118   1.000000
   22       -8.880271   1.000000
   23       -8.818283   1.000000
   24       -8.734663   1.000000
   25       -8.666869   1.000000
   26       -8.584374   1.000000
   27       -8.445150   1.000000
   28       -8.409588   1.000000
   29       -8.383199   1.000000
   30       -8.297476   1.000000
   31       -8.204531   1.000000
   32       -8.167708   1.000000
   33       -8.072362   1.000000
   34       -7.961374   1.000000
   35       -7.811792   1.000000
   36       -7.673916   1.000000
   37       -7.635987   1.000000
   38       -7.593427   1.000000
   39       -7.530310   1.000000
   40       -7.447862   1.000000
   41       -7.259760   1.000000
   42       -7.205409   1.000000
   43       -7.185771   1.000000
   44       -6.916248   1.000000
   45       -6.843287   1.000000
   46       -6.734906   1.000000
   47       -6.668072   1.000000
   48       -6.607454   1.000000
   49       -6.534795   1.000000
   50       -6.476702   1.000000
   51       -6.439489   1.000000
   52       -6.409434   1.000000
   53       -6.350028   1.000000
   54       -6.267092   1.000000
   55       -6.225316   1.000000
   56       -6.188631   1.000000
   57       -6.014012   1.000000
   58       -5.942488   1.000000
   59       -5.825107   1.000000
   60       -5.577408   1.000000
   61       -5.455515   1.000000
   62       -5.402174   1.000000
   63       -5.363147   1.000000
   64       -5.245244   1.000000
   65       -5.138076   1.000000
   66       -4.974006   1.000000
   67       -4.949230   1.000000
   68       -4.883771   1.000000
   69       -4.821967   1.000000
   70       -4.794830   1.000000
   71       -4.581861   1.000000
   72       -4.547051   1.000000
   73       -4.470824   1.000000
   74       -4.296751   1.000000
   75       -4.125755   1.000000
   76       -3.995196   1.000000
   77       -3.756423   0.999710
   78       -3.668123   0.997574
   79       -3.584779   0.987038
   80       -3.323994   0.649259
   81       -3.247536   0.437496
   82       -3.015725   0.036210
   83       -2.749384   0.000117
   84       -2.637531   0.000004
   85       -2.552975   0.000000
   86       -2.403495   0.000000
   87       -2.300429   0.000000
   88       -2.261147   0.000000
   89       -2.183660   0.000000
   90       -2.062926   0.000000
   91       -1.895752   0.000000
   92       -1.751865   0.000000
   93       -1.443143   0.000000
   94       -1.392617   0.000000
   95       -1.148839   0.000000
   96       -1.024169   0.000000
   97       -0.925766   0.000000
   98       -0.851998   0.000000
   99       -0.790049   0.000000
  100       -0.646605   0.000000
  101       -0.585729   0.000000
  102       -0.548689   0.000000
  103       -0.422997   0.000000
  104       -0.390740   0.000000
  105       -0.327732   0.000000
  106       -0.212311   0.000000
  107       -0.131670   0.000000
  108        0.056023   0.000000
  109        0.127654   0.000000
  110        0.188579   0.000000
  111        0.296004   0.000000
  112        0.565272   0.000000
  113        0.648223   0.000000
  114        0.771933   0.000000
  115        0.959663   0.000000
  116        1.118747   0.000000
  117        1.208980   0.000000
  118        1.677464   0.000000
  119        1.873208   0.000000
  120        2.182944   0.000000
 
  0.1250000E+00  0.1250000E+00  0.0000000E+00  0.3125000E-01
    1      -17.726150   1.000000
    2      -16.884100   1.000000
    3      -16.802908   1.000000
    4      -16.643217   1.000000
    5      -16.492153   1.000000
    6      -16.393484   1.000000
    7      -16.362450   1.000000
    8      -16.267079   1.000000
    9      -16.166273   1.000000
   10      -16.046724   1.000000
   11      -15.953355   1.000000
   12      -15.925980   1.000000
   13      -15.846254   1.000000
   14      -15.775892   1.000000
   15      -15.626169   1.000000
   16      -15.557580   1.000000
   17      -15.421302   1.000000
   18      -15.188148   1.000000
   19       -9.348882   1.000000
   20       -9.335028   1.000000
   21       -9.119128   1.000000
   22       -9.049145   1.000000
   23       -8.789219   1.000000
   24       -8.731885   1.000000
   25       -8.636213   1.000000
   26       -8.544094   1.000000
   27       -8.438776   1.000000
   28       -8.382854   1.000000
   29       -8.348238   1.000000
   30       -8.223615   1.000000
   31       -8.171169   1.000000
   32       -8.105566   1.000000
   33       -8.000966   1.000000
   34       -7.859995   1.000000
   35       -7.756369   1.000000
   36       -7.697988   1.000000
   37       -7.571668   1.000000
   38       -7.560223   1.000000
   39       -7.485750   1.000000
   40       -7.345308   1.000000
   41       -7.320166   1.000000
   42       -7.201217   1.000000
   43       -7.137728   1.000000
   44       -6.917469   1.000000
   45       -6.883553   1.000000
   46       -6.721779   1.000000
   47       -6.700144   1.000000
   48       -6.629753   1.000000
   49       -6.570270   1.000000
   50       -6.526100   1.000000
   51       -6.429829   1.000000
   52       -6.400251   1.000000
   53       -6.352809   1.000000
   54       -6.282808   1.000000
   55       -6.205028   1.000000
   56       -6.127454   1.000000
   57       -6.043151   1.000000
   58       -5.873082   1.000000
   59       -5.805526   1.000000
   60       -5.612897   1.000000
   61       -5.589562   1.000000
   62       -5.424720   1.000000
   63       -5.365677   1.000000
   64       -5.336387   1.000000
   65       -5.205275   1.000000
   66       -5.090581   1.000000
   67       -5.007024   1.000000
   68       -4.921071   1.000000
   69       -4.825882   1.000000
   70       -4.675827   1.000000
   71       -4.573827   1.000000
   72       -4.428284   1.000000
   73       -4.369370   1.000000
   74       -4.225737   1.000000
   75       -4.135679   1.000000
   76       -4.008116   1.000000
   77       -3.909681   0.999997
   78       -3.723625   0.999334
   79       -3.520914   0.962113
   80       -3.331615   0.669020
   81       -3.189773   0.285777
   82       -2.970836   0.017263
   83       -2.735407   0.000079
   84       -2.625849   0.000003
   85       -2.526136   0.000000
   86       -2.421217   0.000000
   87       -2.273228   0.000000
   88       -2.231354   0.000000
   89       -2.175117   0.000000
   90       -2.041633   0.000000
   91       -1.855047   0.000000
   92       -1.740750   0.000000
   93       -1.452647   0.000000
   94       -1.380305   0.000000
   95       -1.162765   0.000000
   96       -1.064213   0.000000
   97       -0.957818   0.000000
   98       -0.871284   0.000000
   99       -0.824858   0.000000
  100       -0.714297   0.000000
  101       -0.685258   0.000000
  102       -0.618686   0.000000
  103       -0.520359   0.000000
  104       -0.482579   0.000000
  105       -0.362087   0.000000
  106       -0.239717   0.000000
  107       -0.207130   0.000000
  108       -0.022874   0.000000
  109        0.090588   0.000000
  110        0.259882   0.000000
  111        0.298755   0.000000
  112        0.576533   0.000000
  113        0.752743   0.000000
  114        0.904197   0.000000
  115        0.988685   0.000000
  116        1.122327   0.000000
  117        1.169159   0.000000
  118        1.760101   0.000000
  119        1.949455   0.000000
  120        2.251977   0.000000
 
  0.2500000E+00  0.1250000E+00  0.0000000E+00  0.3125000E-01
    1      -17.631535   1.000000
    2      -17.075833   1.000000
    3      -16.887264   1.000000
    4      -16.628056   1.000000
    5      -16.460299   1.000000
    6      -16.429547   1.000000
    7      -16.330147   1.000000
    8      -16.228030   1.000000
    9      -16.140677   1.000000
   10      -16.040492   1.000000
   11      -15.938426   1.000000
   12      -15.883000   1.000000
   13      -15.759602   1.000000
   14      -15.746303   1.000000
   15      -15.641300   1.000000
   16      -15.599291   1.000000
   17      -15.430762   1.000000
   18      -15.200567   1.000000
   19       -9.597916   1.000000
   20       -9.405823   1.000000
   21       -9.219827   1.000000
   22       -9.085843   1.000000
   23       -8.809195   1.000000
   24       -8.704174   1.000000
   25       -8.614900   1.000000
   26       -8.477822   1.000000
   27       -8.406201   1.000000
   28       -8.342881   1.000000
   29       -8.281850   1.000000
   30       -8.258617   1.000000
   31       -8.128024   1.000000
   32       -8.066456   1.000000
   33       -8.001855   1.000000
   34       -7.894644   1.000000
   35       -7.764880   1.000000
   36       -7.615821   1.000000
   37       -7.506414   1.000000
   38       -7.436939   1.000000
   39       -7.388659   1.000000
   40       -7.346670   1.000000
   41       -7.270987   1.000000
   42       -7.179952   1.000000
   43       -7.007545   1.000000
   44       -6.941298   1.000000
   45       -6.851518   1.000000
   46       -6.767182   1.000000
   47       -6.736232   1.000000