<?xml version="1.0" encoding="ISO-8859-1"?>
<modeling>
 <generator>
  <i name="program" type="string">vasp </i>
  <i name="version" type="string">5.4.1  </i>
  <i name="subversion" type="string">05Feb16 (build Jul 05 2020 17:13:04) complex                          parallel </i>
  <i name="platform" type="string">IFC91_ompi </i>
  <i name="date" type="string">2024 04 22 </i>
  <i name="time" type="string">20:06:04 </i>
 </generator>
 <incar>
  <i type="int" name="ISTART">     0</i>
  <i type="string" name="PREC">normal</i>
  <i type="string" name="ALGO"> Normal</i>
  <i type="int" name="ISPIN">     1</i>
  <i type="int" name="ICHARG">     2</i>
  <i type="int" name="IBRION">     1</i>
  <i type="int" name="NSW">   100</i>
  <i type="int" name="ISIF">     3</i>
  <i type="int" name="ISYM">     0</i>
  <i name="SYMPREC">      0.00000001</i>
  <i name="POTIM">      0.50000000</i>
  <i type="logical" name="LREAL"> F  </i>
  <i type="logical" name="LPLANE"> F  </i>
  <i type="int" name="ISMEAR">     0</i>
  <i type="logical" name="LWAVE"> F  </i>
  <i type="logical" name="LCHARG"> F  </i>
  <v type="int" name="KPOINT_BSE">    -1     0     0     0</v>
 </incar>
 <kpoints>
  <generation param="Gamma">
   <v type="int" name="divisions">       8        8        1 </v>
   <v name="usershift">      0.00000000       0.00000000       0.00000000 </v>
   <v name="genvec1">      0.12500000       0.00000000       0.00000000 </v>
   <v name="genvec2">     -0.00000000       0.12500000       0.00000000 </v>
   <v name="genvec3">      0.00000000       0.00000000       1.00000000 </v>
   <v name="shift">      0.00000000       0.00000000       0.00000000 </v>
  </generation>
  <varray name="kpointlist" >
   <v>       0.00000000       0.00000000       0.00000000 </v>
   <v>       0.12500000       0.00000000       0.00000000 </v>
   <v>       0.25000000       0.00000000       0.00000000 </v>
   <v>       0.37500000       0.00000000       0.00000000 </v>
   <v>       0.50000000       0.00000000       0.00000000 </v>
   <v>       0.00000000       0.12500000       0.00000000 </v>
   <v>       0.12500000       0.12500000       0.00000000 </v>
   <v>       0.25000000       0.12500000       0.00000000 </v>
   <v>       0.37500000       0.12500000       0.00000000 </v>
   <v>       0.50000000       0.12500000       0.00000000 </v>
   <v>      -0.37500000       0.12500000       0.00000000 </v>
   <v>      -0.25000000       0.12500000       0.00000000 </v>
   <v>      -0.12500000       0.12500000       0.00000000 </v>
   <v>       0.00000000       0.25000000       0.00000000 </v>
   <v>       0.12500000       0.25000000       0.00000000 </v>
   <v>       0.25000000       0.25000000       0.00000000 </v>
   <v>       0.37500000       0.25000000       0.00000000 </v>
   <v>       0.50000000       0.25000000       0.00000000 </v>
   <v>      -0.37500000       0.25000000       0.00000000 </v>
   <v>      -0.25000000       0.25000000       0.00000000 </v>
   <v>      -0.12500000       0.25000000       0.00000000 </v>
   <v>      -0.00000000       0.37500000       0.00000000 </v>
   <v>       0.12500000       0.37500000       0.00000000 </v>
   <v>       0.25000000       0.37500000       0.00000000 </v>
   <v>       0.37500000       0.37500000       0.00000000 </v>
   <v>       0.50000000       0.37500000       0.00000000 </v>
   <v>      -0.37500000       0.37500000       0.00000000 </v>
   <v>      -0.25000000       0.37500000       0.00000000 </v>
   <v>      -0.12500000       0.37500000       0.00000000 </v>
   <v>       0.00000000       0.50000000       0.00000000 </v>
   <v>       0.12500000       0.50000000       0.00000000 </v>
   <v>       0.25000000       0.50000000       0.00000000 </v>
   <v>       0.37500000       0.50000000       0.00000000 </v>
   <v>       0.50000000       0.50000000       0.00000000 </v>
  </varray>
  <varray name="weights" >
   <v>       0.01562500 </v>
   <v>       0.03125000 </v>
   <v>       0.03125000 </v>
   <v>       0.03125000 </v>
   <v>       0.01562500 </v>
   <v>       0.03125000 </v>
   <v>       0.03125000 </v>
   <v>       0.03125000 </v>
   <v>       0.03125000 </v>
   <v>       0.03125000 </v>
   <v>       0.03125000 </v>
   <v>       0.03125000 </v>
   <v>       0.03125000 </v>
   <v>       0.03125000 </v>
   <v>       0.03125000 </v>
   <v>       0.03125000 </v>
   <v>       0.03125000 </v>
   <v>       0.03125000 </v>
   <v>       0.03125000 </v>
   <v>       0.03125000 </v>
   <v>       0.03125000 </v>
   <v>       0.03125000 </v>
   <v>       0.03125000 </v>
   <v>       0.03125000 </v>
   <v>       0.03125000 </v>
   <v>       0.03125000 </v>
   <v>       0.03125000 </v>
   <v>       0.03125000 </v>
   <v>       0.03125000 </v>
   <v>       0.01562500 </v>
   <v>       0.03125000 </v>
   <v>       0.03125000 </v>
   <v>       0.03125000 </v>
   <v>       0.01562500 </v>
  </varray>
 </kpoints>
 <parameters>
  <separator name="general" >
   <i type="string" name="SYSTEM">unknown system</i>
   <i type="logical" name="LCOMPAT"> F  </i>
  </separator>
  <separator name="electronic" >
   <i type="string" name="PREC">normal</i>
   <i name="ENMAX">    280.00000000</i>
   <i name="ENAUG">    373.43800000</i>
   <i name="EDIFF">      0.00010000</i>
   <i type="int" name="IALGO">    38</i>
   <i type="int" name="IWAVPR">    11</i>
   <i type="int" name="NBANDS">   120</i>
   <i name="NELECT">    159.00000000</i>
   <i type="int" name="TURBO">     0</i>
   <i type="int" name="IRESTART">     0</i>
   <i type="int" name="NREBOOT">     0</i>
   <i type="int" name="NMIN">     0</i>
   <i name="EREF">      0.00000000</i>
   <separator name="electronic smearing" >
    <i type="int" name="ISMEAR">     0</i>
    <i name="SIGMA">      0.20000000</i>
    <i name="KSPACING">      0.50000000</i>
    <i type="logical" name="KGAMMA"> T  </i>
   </separator>
   <separator name="electronic projectors" >
    <i type="logical" name="LREAL"> F  </i>
    <v name="ROPT">      0.00000000      0.00000000      0.00000000      0.00000000</v>
    <i type="int" name="LMAXPAW">  -100</i>
    <i type="int" name="LMAXMIX">     2</i>
    <i type="logical" name="NLSPLINE"> F  </i>
   </separator>
   <separator name="electronic startup" >
    <i type="int" name="ISTART">     0</i>
    <i type="int" name="ICHARG">     2</i>
    <i type="int" name="INIWAV">     1</i>
   </separator>
   <separator name="electronic spin" >
    <i type="int" name="ISPIN">     1</i>
    <i type="logical" name="LNONCOLLINEAR"> F  </i>
    <v name="MAGMOM">      1.00000000      1.00000000      1.00000000      1.00000000      1.00000000      1.00000000      1.00000000      1.00000000      1.00000000      1.00000000      1.00000000      1.00000000      1.00000000      1.00000000      1.00000000      1.00000000      1.00000000      1.00000000      1.00000000      1.00000000
      1.00000000      1.00000000      1.00000000      1.00000000      1.00000000      1.00000000      1.00000000</v>
    <i name="NUPDOWN">     -1.00000000</i>
    <i type="logical" name="LSORBIT"> F  </i>
    <v name="SAXIS">      0.00000000      0.00000000      1.00000000</v>
    <i type="logical" name="LSPIRAL"> F  </i>
    <v name="QSPIRAL">      0.00000000      0.00000000      0.00000000</v>
    <i type="logical" name="LZEROZ"> F  </i>
   </separator>
   <separator name="electronic exchange-correlation" >
    <i type="logical" name="LASPH"> F  </i>
    <i type="logical" name="LMETAGGA"> F  </i>
   </separator>
   <separator name="electronic convergence" >
    <i type="int" name="NELM">    60</i>
    <i type="int" name="NELMDL">    -5</i>
    <i type="int" name="NELMIN">     2</i>
    <i name="ENINI">    280.00000000</i>
    <separator name="electronic convergence detail" >
     <i type="logical" name="LDIAG"> T  </i>
     <i type="logical" name="LSUBROT"> F  </i>
     <i name="WEIMIN">      0.00100000</i>
     <i name="EBREAK">      0.00000021</i>
     <i name="DEPER">      0.30000000</i>
     <i type="int" name="NRMM">     4</i>
     <i name="TIME">      0.40000000</i>
    </separator>
   </separator>
   <separator name="electronic mixer" >
    <i name="AMIX">      0.40000000</i>
    <i name="BMIX">      1.00000000</i>
    <i name="AMIN">      0.10000000</i>
    <i name="AMIX_MAG">      1.60000000</i>
    <i name="BMIX_MAG">      1.00000000</i>
    <separator name="electronic mixer details" >
     <i type="int" name="IMIX">     4</i>
     <i type="logical" name="MIXFIRST"> F  </i>
     <i type="int" name="MAXMIX">   -45</i>
     <i name="WC">    100.00000000</i>
     <i type="int" name="INIMIX">     1</i>
     <i type="int" name="MIXPRE">     1</i>
     <i type="int" name="MREMOVE">     5</i>
    </separator>
   </separator>
   <separator name="electronic dipolcorrection" >
    <i type="logical" name="LDIPOL"> F  </i>
    <i type="logical" name="LMONO"> F  </i>
    <i type="int" name="IDIPOL">     0</i>
    <i name="EPSILON">      1.00000000</i>
    <v name="DIPOL">   -100.00000000   -100.00000000   -100.00000000</v>
    <i name="EFIELD">      0.00000000</i>
   </separator>
  </separator>
  <separator name="grids" >
   <i type="int" name="NGX">    42</i>
   <i type="int" name="NGY">    42</i>
   <i type="int" name="NGZ">   126</i>
   <i type="int" name="NGXF">    84</i>
   <i type="int" name="NGYF">    84</i>
   <i type="int" name="NGZF">   252</i>
   <i type="logical" name="ADDGRID"> F  </i>
  </separator>
  <separator name="ionic" >
   <i type="int" name="NSW">   100</i>
   <i type="int" name="IBRION">     1</i>
   <i type="int" name="ISIF">     3</i>
   <i name="PSTRESS">      0.00000000</i>
   <i name="EDIFFG">      0.00100000</i>
   <i type="int" name="NFREE">     0</i>
   <i name="POTIM">      0.50000000</i>
   <i name="SMASS">     -3.00000000</i>
   <i name="SCALEE">      1.00000000</i>
  </separator>
  <separator name="ionic md" >
   <i name="TEBEG">      0.00010000</i>
   <i name="TEEND">      0.00010000</i>
   <i type="int" name="NBLOCK">     1</i>
   <i type="int" name="KBLOCK">   100</i>
   <i type="int" name="NPACO">   256</i>
   <i name="APACO">     16.00000000</i>
  </separator>
  <separator name="symmetry" >
   <i type="int" name="ISYM">     0</i>
   <i name="SYMPREC">      0.00000001</i>
  </separator>
  <separator name="dos" >
   <i type="logical" name="LORBIT"> F  </i>
   <v name="RWIGS">     -1.00000000     -1.00000000     -1.00000000     -1.00000000</v>
   <i type="int" name="NEDOS">   301</i>
   <i name="EMIN">     10.00000000</i>
   <i name="EMAX">    -10.00000000</i>
   <i name="EFERMI">      0.00000000</i>
  </separator>
  <separator name="writing" >
   <i type="int" name="NWRITE">     2</i>
   <i type="logical" name="LWAVE"> F  </i>
   <i type="logical" name="LCHARG"> F  </i>
   <i type="logical" name="LPARD"> F  </i>
   <i type="logical" name="LVTOT"> F  </i>
   <i type="logical" name="LVHAR"> F  </i>
   <i type="logical" name="LELF"> F  </i>
   <i type="logical" name="LOPTICS"> F  </i>
   <v name="STM">      0.00000000      0.00000000      0.00000000      0.00000000      0.00000000      0.00000000      0.00000000</v>
  </separator>
  <separator name="performance" >
   <i type="int" name="NPAR">    40</i>
   <i type="int" name="NSIM">     4</i>
   <i type="int" name="NBLK">    -1</i>
   <i type="logical" name="LPLANE"> F  </i>
   <i type="logical" name="LSCALAPACK"> T  </i>
   <i type="logical" name="LSCAAWARE"> F  </i>
   <i type="logical" name="LSCALU"> F  </i>
   <i type="logical" name="LASYNC"> F  </i>
   <i type="logical" name="LORBITALREAL"> F  </i>
  </separator>
  <separator name="miscellaneous" >
   <i type="int" name="IDIOT">     3</i>
   <i type="logical" name="LMUSIC"> F  </i>
   <v name="POMASS">     50.94100000     95.94000000    183.85000000     32.06600000</v>
   <v name="DARWINR">      0.00000000      0.00000000      0.00000000      0.00000000</v>
   <v name="DARWINV">      1.00000000      1.00000000      1.00000000      1.00000000</v>
   <i type="logical" name="LCORR"> T  </i>
  </separator>
  <i type="logical" name="GGA_COMPAT"> T  </i>
  <i type="logical" name="LBERRY"> F  </i>
  <i type="int" name="ICORELEVEL">     0</i>
  <i type="logical" name="LDAU"> F  </i>
  <i type="int" name="I_CONSTRAINED_M">     0</i>
  <separator name="electronic exchange-correlation" >
   <i type="string" name="GGA">--</i>
   <i type="int" name="VOSKOWN">     0</i>
   <i type="logical" name="LHFCALC"> F  </i>
   <i type="string" name="PRECFOCK"></i>
   <i type="logical" name="LSYMGRAD"> F  </i>
   <i type="logical" name="LHFONE"> F  </i>
   <i type="logical" name="LRHFCALC"> F  </i>
   <i type="logical" name="LTHOMAS"> F  </i>
   <i type="logical" name="LMODELHF"> F  </i>
   <i name="ENCUT4O">     -1.00000000</i>
   <i type="int" name="EXXOEP">     0</i>
   <i type="int" name="FOURORBIT">     0</i>
   <i name="AEXX">      0.00000000</i>
   <i name="HFALPHA">      0.00000000</i>
   <i name="MCALPHA">      0.00000000</i>
   <i name="ALDAX">      1.00000000</i>
   <i name="AGGAX">      1.00000000</i>
   <i name="ALDAC">      1.00000000</i>
   <i name="AGGAC">      1.00000000</i>
   <i type="int" name="NKREDX">     1</i>
   <i type="int" name="NKREDY">     1</i>
   <i type="int" name="NKREDZ">     1</i>
   <i type="logical" name="SHIFTRED"> F  </i>
   <i type="logical" name="ODDONLY"> F  </i>
   <i type="logical" name="EVENONLY"> F  </i>
   <i type="int" name="LMAXFOCK">     0</i>
   <i type="int" name="NMAXFOCKAE">     0</i>
   <i type="logical" name="LFOCKAEDFT"> F  </i>
   <i name="HFSCREEN">      0.00000000</i>
   <i name="HFSCREENC">      0.00000000</i>
   <i type="int" name="NBANDSGWLOW">     0</i>
  </separator>
  <separator name="vdW DFT" >
   <i type="logical" name="LUSE_VDW"> F  </i>
   <i name="Zab_VDW">     -0.84910000</i>
   <i name="PARAM1">      0.12340000</i>
   <i name="PARAM2">      1.00000000</i>
   <i name="PARAM3">      0.00000000</i>
  </separator>
  <separator name="model GW" >
   <i type="int" name="MODEL_GW">     0</i>
   <i name="MODEL_EPS0">     58.26239943</i>
   <i name="MODEL_ALPHA">      1.00000000</i>
  </separator>
  <separator name="linear response parameters" >
   <i type="logical" name="LEPSILON"> F  </i>
   <i type="logical" name="LRPA"> F  </i>
   <i type="logical" name="LNABLA"> F  </i>
   <i type="logical" name="LVEL"> F  </i>
   <i type="int" name="KINTER">     0</i>
   <i name="CSHIFT">      0.10000000</i>
   <i name="OMEGAMAX">     -1.00000000</i>
   <i name="DEG_THRESHOLD">      0.00200000</i>
  </separator>
  <separator name="orbital magnetization" >
   <i type="logical" name="NUCIND"> F  </i>
   <v name="MAGPOS">      0.00000000      0.00000000      0.00000000</v>
   <i type="logical" name="LNICSALL"> T  </i>
   <i type="logical" name="ORBITALMAG"> F  </i>
   <i type="logical" name="LMAGBLOCH"> F  </i>
   <i type="logical" name="LCHIMAG"> F  </i>
   <i type="logical" name="LGAUGE"> T  </i>
   <i type="int" name="MAGATOM">     0</i>
   <v name="MAGDIPOL">      0.00000000      0.00000000      0.00000000</v>
   <v name="AVECCONST">      0.00000000      0.00000000      0.00000000</v>
  </separator>
  <separator name="response functions" >
   <i type="logical" name="LADDER"> F  </i>
   <i type="logical" name="LFXC"> F  </i>
   <i type="logical" name="LHARTREE"> T  </i>
   <i type="int" name="IBSE">     0</i>
   <v type="int" name="KPOINT">    -1     0     0     0</v>
   <i type="logical" name="LTCTE"> F  </i>
   <i type="logical" name="LTETE"> F  </i>
   <i type="logical" name="LTRIPLET"> F  </i>
   <i type="logical" name="LFXCEPS"> F  </i>
   <i type="logical" name="LFXHEG"> F  </i>
   <i type="int" name="NATURALO">     0</i>
   <i type="logical" name="L2ORDER"> F  </i>
   <i type="logical" name="LUSEW"> F  </i>
   <i name="ENCUTGW">     -2.00000000</i>
   <i name="ENCUTGWSOFT">     -2.00000000</i>
   <i name="ENCUTLF">     -1.00000000</i>
   <i type="int" name="LMAXMP2">    -1</i>
   <i name="SCISSOR">      0.00000000</i>
   <i type="int" name="NOMEGA">     0</i>
   <i type="int" name="NOMEGAR">     0</i>
   <i type="int" name="NBANDSGW">    -1</i>
   <i type="int" name="NBANDSO">    -1</i>
   <i type="int" name="NBANDSV">    -1</i>
   <i type="int" name="NELM">     1</i>
   <i type="int" name="NELMHF">     1</i>
   <i type="int" name="DIM">     3</i>
   <i type="int" name="ANTIRES">     0</i>
   <i name="OMEGAMAX">    -30.00000000</i>
   <i name="OMEGAMIN">    -30.00000000</i>
   <i name="OMEGATL">   -200.00000000</i>
   <i type="int" name="OMEGAGRID">     0</i>
   <i name="CSHIFT">     -0.10000000</i>
   <i type="logical" name="SELFENERGY"> F  </i>
   <i type="logical" name="LSPECTRAL"> F  </i>
   <i type="logical" name="LSPECTRALGW"> F  </i>
   <i type="logical" name="LSINGLES"> F  </i>
   <i type="logical" name="LFERMIGW"> F  </i>
   <i type="logical" name="ODDONLYGW"> F  </i>
   <i type="logical" name="EVENONLYGW"> F  </i>
   <i type="int" name="NKREDLFX">     1</i>
   <i type="int" name="NKREDLFY">     1</i>
   <i type="int" name="NKREDLFZ">     1</i>
   <i type="int" name="MAXMEM">  1800</i>
   <i type="int" name="TELESCOPE">     0</i>
   <i type="int" name="TAUPAR">     1</i>
   <i type="int" name="OMEGAPAR">    -1</i>
   <i name="LAMBDA">      1.00000000</i>
  </separator>
  <separator name="External order field" >
   <i name="OFIELD_KAPPA">      0.00000000</i>
   <v name="OFIELD_K">      0.00000000      0.00000000      0.00000000</v>
   <i name="OFIELD_Q6_NEAR">      0.00000000</i>
   <i name="OFIELD_Q6_FAR">      0.00000000</i>
   <i name="OFIELD_A">      0.00000000</i>
  </separator>
 </parameters>
 <atominfo>
  <atoms>      27 </atoms>
  <types>       4 </types>
  <array name="atoms" >
   <dimension dim="1">ion</dimension>
   <field type="string">element</field>
   <field type="int">atomtype</field>
   <set>
    <rc><c>V </c><c>   1</c></rc>
    <rc><c>V </c><c>   1</c></rc>
    <rc><c>V </c><c>   1</c></rc>
    <rc><c>Mo</c><c>   2</c></rc>
    <rc><c>Mo</c><c>   2</c></rc>
    <rc><c>Mo</c><c>   2</c></rc>
    <rc><c>W </c><c>   3</c></rc>
    <rc><c>W </c><c>   3</c></rc>
    <rc><c>W </c><c>   3</c></rc>
    <rc><c>S </c><c>   4</c></rc>
    <rc><c>S </c><c>   4</c></rc>
    <rc><c>S </c><c>   4</c></rc>
    <rc><c>S </c><c>   4</c></rc>
    <rc><c>S </c><c>   4</c></rc>
    <rc><c>S </c><c>   4</c></rc>
    <rc><c>S </c><c>   4</c></rc>
    <rc><c>S </c><c>   4</c></rc>
    <rc><c>S </c><c>   4</c></rc>
    <rc><c>S </c><c>   4</c></rc>
    <rc><c>S </c><c>   4</c></rc>
    <rc><c>S </c><c>   4</c></rc>
    <rc><c>S </c><c>   4</c></rc>
    <rc><c>S </c><c>   4</c></rc>
    <rc><c>S </c><c>   4</c></rc>
    <rc><c>S </c><c>   4</c></rc>
    <rc><c>S </c><c>   4</c></rc>
    <rc><c>S </c><c>   4</c></rc>
   </set>
  </array>
  <array name="atomtypes" >
   <dimension dim="1">type</dimension>
   <field type="int">atomspertype</field>
   <field type="string">element</field>
   <field>mass</field>
   <field>valence</field>
   <field type="string">pseudopotential</field>
   <set>
    <rc><c>   3</c><c>V </c><c>     50.94100000</c><c>      5.00000000</c><c> PAW_PBE V 08Apr2002                    </c></rc>
    <rc><c>   3</c><c>Mo</c><c>     95.94000000</c><c>      6.00000000</c><c> PAW_PBE Mo 08Apr2002                   </c></rc>
    <rc><c>   3</c><c>W </c><c>    183.85000000</c><c>      6.00000000</c><c> PAW_PBE W 08Apr2002                    </c></rc>
    <rc><c>  18</c><c>S </c><c>     32.06600000</c><c>      6.00000000</c><c>  PAW_PBE S 17Jan2003                   </c></rc>
   </set>
  </array>
 </atominfo>
 <structure name="initialpos" >
  <crystal>
   <varray name="basis" >
    <v>       8.66999996       5.03999989       0.00000000 </v>
    <v>      -8.66999982       5.04000013       0.00000000 </v>
    <v>       0.00000000       0.00000000      30.00000000 </v>
   </varray>
   <i name="volume">   2621.80797419 </i>
   <varray name="rec_basis" >
    <v>       0.05767013       0.09920635       0.00000000 </v>
    <v>      -0.05767013       0.09920635       0.00000000 </v>
    <v>       0.00000000       0.00000000       0.03333333 </v>
   </varray>
  </crystal>
  <varray name="positions" >
   <v>       0.66666669       0.00000000       0.00000000 </v>
   <v>       0.66666669       0.33333334       0.00000000 </v>
   <v>       0.33333334       0.00000000       0.00000000 </v>
   <v>       0.66666669       0.66666669       0.00000000 </v>
   <v>       0.00000000       0.66666669       0.00000000 </v>
   <v>       1.00000000       0.33333334       0.00000000 </v>
   <v>       0.00000000       0.00000000       0.00000000 </v>
   <v>       0.33333334       0.33333334       0.00000000 </v>
   <v>       0.33333334       0.66666669       0.00000000 </v>
   <v>       0.11068511       0.22244981       0.95539999 </v>
   <v>       0.22244981       0.11068511       0.04460000 </v>
   <v>       0.11068511       0.55578315       0.95539999 </v>
   <v>       0.22244981       0.44401845       0.04460000 </v>
   <v>       0.11068511       0.88911647       0.95539999 </v>
   <v>       0.22244981       0.77735180       0.04460000 </v>
   <v>       0.44401845       0.22244981       0.95539999 </v>
   <v>       0.55578315       0.11068511       0.04460000 </v>
   <v>       0.44401845       0.55578315       0.95539999 </v>
   <v>       0.55578315       0.44401845       0.04460000 </v>
   <v>       0.44401845       0.88911647       0.95539999 </v>
   <v>       0.55578315       0.77735180       0.04460000 </v>
   <v>       0.77735180       0.22244981       0.95539999 </v>
   <v>       0.88911647       0.11068511       0.04460000 </v>
   <v>       0.77735180       0.55578315       0.95539999 </v>
   <v>       0.88911647       0.44401845       0.04460000 </v>
   <v>       0.77735180       0.88911647       0.95539999 </v>
   <v>       0.88911647       0.77735180       0.04460000 </v>
  </varray>
 </structure>
 <calculation>
  <scstep>
   <time name="dav">   21.80   21.85</time>
   <time name="total">   21.84   21.90</time>
   <energy>
    <i name="alphaZ">     81.65567618 </i>
    <i name="ewald">  41891.17178071 </i>
    <i name="hartreedc"> -47723.81659068 </i>
    <i name="XCdc">   -242.92514252 </i>
    <i name="pawpsdc">   3467.42045192 </i>
    <i name="pawaedc">  -2871.19716117 </i>
    <i name="eentropy">     -0.53473881 </i>
    <i name="bandstr">   -239.06970662 </i>
    <i name="atom">   6761.44252427 </i>
    <i name="e_fr_energy">   1124.14709328 </i>
    <i name="e_wo_entrp">   1124.68183209 </i>
    <i name="e_0_energy">   1124.41446268 </i>
   </energy>
  </scstep>
  <scstep>
   <time name="dav">   27.96   28.02</time>
   <time name="total">   27.96   28.03</time>
   <energy>
    <i name="e_fr_energy">     -1.20406428 </i>
    <i name="e_wo_entrp">     -1.00057334 </i>
    <i name="e_0_energy">     -1.10231881 </i>
   </energy>
  </scstep>
  <scstep>
   <time name="dav">   27.76   27.83</time>
   <time name="total">   27.76   27.84</time>
   <energy>
    <i name="e_fr_energy">   -199.91860154 </i>
    <i name="e_wo_entrp">   -199.66444874 </i>
    <i name="e_0_energy">   -199.79152514 </i>
   </energy>
  </scstep>
  <scstep>
   <time name="dav">   30.20   30.27</time>
   <time name="total">   30.20   30.28</time>
   <energy>
    <i name="e_fr_energy">   -209.01530863 </i>
    <i name="e_wo_entrp">   -208.73051280 </i>
    <i name="e_0_energy">   -208.87291072 </i>
   </energy>
  </scstep>
  <scstep>
   <time name="dav">   28.66   28.73</time>
   <time name="total">   29.13   29.20</time>
   <energy>
    <i name="e_fr_energy">   -209.32101303 </i>
    <i name="e_wo_entrp">   -209.03873192 </i>
    <i name="e_0_energy">   -209.17987247 </i>
   </energy>
  </scstep>
  <scstep>
   <time name="dav">   30.25   30.32</time>
   <time name="total">   30.75   30.83</time>
   <energy>
    <i name="e_fr_energy">   -237.93702827 </i>
    <i name="e_wo_entrp">   -237.67808357 </i>
    <i name="e_0_energy">   -237.80755592 </i>
   </energy>
  </scstep>
  <scstep>
   <time name="dav">   32.92   33.00</time>
   <time name="total">   33.43   33.52</time>
   <energy>
    <i name="e_fr_energy">   -196.56780332 </i>
    <i name="e_wo_entrp">   -196.22653369 </i>
    <i name="e_0_energy">   -196.39716850 </i>
   </energy>
  </scstep>
  <scstep>
   <time name="dav">   29.50   29.58</time>
   <time name="total">   30.02   30.10</time>
   <energy>
    <i name="e_fr_energy">   -189.48491471 </i>
    <i name="e_wo_entrp">   -189.17345599 </i>
    <i name="e_0_energy">   -189.32918535 </i>
   </energy>
  </scstep>
  <scstep>
   <time name="dav">   32.83   32.91</time>
   <time name="total">   33.36   33.45</time>
   <energy>
    <i name="e_fr_energy">   -188.16236195 </i>
    <i name="e_wo_entrp">   -187.84446628 </i>
    <i name="e_0_energy">   -188.00341411 </i>
   </energy>
  </scstep>
  <scstep>
   <time name="dav">   32.56   32.64</time>
   <time name="total">   33.09   33.18</time>
   <energy>
    <i name="e_fr_energy">   -186.95783757 </i>
    <i name="e_wo_entrp">   -186.60549222 </i>
    <i name="e_0_energy">   -186.78166489 </i>
   </energy>
  </scstep>
  <scstep>
   <time name="dav">   33.09   33.17</time>
   <time name="total">   33.63   33.72</time>
   <energy>
    <i name="e_fr_energy">   -187.05051820 </i>
    <i name="e_wo_entrp">   -186.70839907 </i>
    <i name="e_0_energy">   -186.87945863 </i>
   </energy>
  </scstep>
  <scstep>
   <time name="dav">   31.18   31.26</time>
   <time name="total">   31.72   31.81</time>
   <energy>
    <i name="e_fr_energy">   -186.99218973 </i>
    <i name="e_wo_entrp">   -186.66139637 </i>
    <i name="e_0_energy">   -186.82679305 </i>
   </energy>
  </scstep>
  <scstep>
   <time name="dav">   31.79   31.87</time>
   <time name="total">   32.33   32.42</time>
   <energy>
    <i name="e_fr_energy">   -186.88863056 </i>
    <i name="e_wo_entrp">   -186.55396338 </i>
    <i name="e_0_energy">   -186.72129697 </i>
   </energy>
  </scstep>
  <scstep>
   <time name="dav">   32.04   32.12</time>
   <time name="total">   32.58   32.66</time>
   <energy>
    <i name="e_fr_energy">   -186.85082037 </i>
    <i name="e_wo_entrp">   -186.50627074 </i>
    <i name="e_0_energy">   -186.67854555 </i>
   </energy>
  </scstep>
  <scstep>
   <time name="dav">   30.70   30.78</time>
   <time name="total">   31.24   31.33</time>
   <energy>
    <i name="e_fr_energy">   -186.84942546 </i>
    <i name="e_wo_entrp">   -186.50565427 </i>
    <i name="e_0_energy">   -186.67753987 </i>
   </energy>
  </scstep>
  <scstep>
   <time name="dav">   32.49   32.56</time>
   <time name="total">   33.02   33.11</time>
   <energy>
    <i name="e_fr_energy">   -186.84348926 </i>
    <i name="e_wo_entrp">   -186.50022759 </i>
    <i name="e_0_energy">   -186.67185843 </i>
   </energy>
  </scstep>
  <scstep>
   <time name="dav">   31.10   31.17</time>
   <time name="total">   31.64   31.72</time>
   <energy>
    <i name="e_fr_energy">   -186.84218528 </i>
    <i name="e_wo_entrp">   -186.50040715 </i>
    <i name="e_0_energy">   -186.67129621 </i>
   </energy>
  </scstep>
  <scstep>
   <time name="dav">   28.90   28.97</time>
   <time name="total">   29.44   29.52</time>
   <energy>
    <i name="e_fr_energy">   -186.84195307 </i>
    <i name="e_wo_entrp">   -186.49970144 </i>
    <i name="e_0_energy">   -186.67082726 </i>
   </energy>
  </scstep>
  <scstep>
   <time name="dav">   27.53   27.60</time>
   <time name="total">   28.07   28.15</time>
   <energy>
    <i name="e_fr_energy">   -186.84173712 </i>
    <i name="e_wo_entrp">   -186.49936576 </i>
    <i name="e_0_energy">   -186.67055144 </i>
   </energy>
  </scstep>
  <scstep>
   <time name="dav">   24.08   24.13</time>
   <time name="total">   24.62   24.68</time>
   <energy>
    <i name="e_fr_energy">   -186.84248091 </i>
    <i name="e_wo_entrp">   -186.50054863 </i>
    <i name="e_0_energy">   -186.67151477 </i>
   </energy>
  </scstep>
  <scstep>
   <time name="dav">   21.83   21.88</time>
   <time name="total">   22.37   22.43</time>
   <energy>
    <i name="e_fr_energy">   -186.84325853 </i>
    <i name="e_wo_entrp">   -186.50129850 </i>
    <i name="e_0_energy">   -186.67227851 </i>
   </energy>
  </scstep>
  <scstep>
   <time name="dav">   20.35   20.40</time>
   <time name="total">   20.89   20.94</time>
   <energy>
    <i name="e_fr_energy">   -186.84425681 </i>
    <i name="e_wo_entrp">   -186.50218762 </i>
    <i name="e_0_energy">   -186.67322222 </i>
   </energy>
  </scstep>
  <scstep>
   <time name="dav">   20.39   20.44</time>
   <time name="total">   20.93   20.99</time>
   <energy>
    <i name="e_fr_energy">   -186.84541831 </i>
    <i name="e_wo_entrp">   -186.50347120 </i>
    <i name="e_0_energy">   -186.67444475 </i>
   </energy>
  </scstep>
  <scstep>
   <time name="dav">   19.01   19.05</time>
   <time name="total">   19.55   19.60</time>
   <energy>
    <i name="e_fr_energy">   -186.84597689 </i>
    <i name="e_wo_entrp">   -186.50396905 </i>
    <i name="e_0_energy">   -186.67497297 </i>
   </energy>
  </scstep>
  <scstep>
   <time name="dav">   16.26   16.30</time>
   <time name="total">   16.80   16.84</time>
   <energy>
    <i name="e_fr_energy">   -186.84637034 </i>
    <i name="e_wo_entrp">   -186.50434725 </i>
    <i name="e_0_energy">   -186.67535880 </i>
   </energy>
  </scstep>
  <scstep>
   <time name="dav">   18.99   19.03</time>
   <time name="total">   19.52   19.58</time>
   <energy>
    <i name="e_fr_energy">   -186.84661442 </i>
    <i name="e_wo_entrp">   -186.50460834 </i>
    <i name="e_0_energy">   -186.67561138 </i>
   </energy>
  </scstep>
  <scstep>
   <time name="dav">   20.52   20.57</time>
   <time name="total">   20.56   20.61</time>
   <energy>
    <i name="alphaZ">     81.65567618 </i>
    <i name="ewald">  41891.17178071 </i>
    <i name="hartreedc"> -47833.66757814 </i>
    <i name="XCdc">   -231.60452940 </i>
    <i name="pawpsdc">   4192.08578301 </i>
    <i name="pawaedc">  -3610.08734504 </i>
    <i name="eentropy">     -0.34201194 </i>
    <i name="bandstr">  -1437.50100083 </i>
    <i name="atom">   6761.44252427 </i>
    <i name="e_fr_energy">   -186.84670118 </i>
    <i name="e_wo_entrp">   -186.50468924 </i>
    <i name="e_0_energy">   -186.67569521 </i>
   </energy>
  </scstep>
  <structure>
   <crystal>
    <varray name="basis" >
     <v>       8.66999996       5.03999989       0.00000000 </v>
     <v>      -8.66999982       5.04000013       0.00000000 </v>
     <v>       0.00000000       0.00000000      30.00000000 </v>
    </varray>
    <i name="volume">   2621.80797419 </i>
    <varray name="rec_basis" >
     <v>       0.05767013       0.09920635       0.00000000 </v>
     <v>      -0.05767013       0.09920635       0.00000000 </v>
     <v>       0.00000000       0.00000000       0.03333333 </v>
    </varray>
   </crystal>
   <varray name="positions" >
    <v>       0.66666669       0.00000000       0.00000000 </v>
    <v>       0.66666669       0.33333334       0.00000000 </v>
    <v>       0.33333334       0.00000000       0.00000000 </v>
    <v>       0.66666669       0.66666669       0.00000000 </v>
    <v>       0.00000000       0.66666669       0.00000000 </v>
    <v>       1.00000000       0.33333334       0.00000000 </v>
    <v>       0.00000000       0.00000000       0.00000000 </v>
    <v>       0.33333334       0.33333334       0.00000000 </v>
    <v>       0.33333334       0.66666669       0.00000000 </v>
    <v>       0.11068511       0.22244981       0.95539999 </v>
    <v>       0.22244981       0.11068511       0.04460000 </v>
    <v>       0.11068511       0.55578315       0.95539999 </v>
    <v>       0.22244981       0.44401845       0.04460000 </v>
    <v>       0.11068511       0.88911647       0.95539999 </v>
    <v>       0.22244981       0.77735180       0.04460000 </v>
    <v>       0.44401845       0.22244981       0.95539999 </v>
    <v>       0.55578315       0.11068511       0.04460000 </v>
    <v>       0.44401845       0.55578315       0.95539999 </v>
    <v>       0.55578315       0.44401845       0.04460000 </v>
    <v>       0.44401845       0.88911647       0.95539999 </v>
    <v>       0.55578315       0.77735180       0.04460000 </v>
    <v>       0.77735180       0.22244981       0.95539999 </v>
    <v>       0.88911647       0.11068511       0.04460000 </v>
    <v>       0.77735180       0.55578315       0.95539999 </v>
    <v>       0.88911647       0.44401845       0.04460000 </v>
    <v>       0.77735180       0.88911647       0.95539999 </v>
    <v>       0.88911647       0.77735180       0.04460000 </v>
   </varray>
  </structure>
  <varray name="forces" >
   <v>       0.01332125       0.12756390       0.04833902 </v>
   <v>       0.10651992       0.33158513       0.01269961 </v>
   <v>       0.07908395      -0.07769354       0.02976866 </v>
   <v>       0.26405489       0.12771831      -0.09487589 </v>
   <v>      -0.00461484      -0.32673371      -0.11861121 </v>
   <v>      -0.28167007       0.13379191       0.06664545 </v>
   <v>       0.00154915      -0.35242204      -0.14584783 </v>
   <v>      -0.14467283       0.16919169       0.06562194 </v>
   <v>      -0.06441589      -0.22543090       0.13634103 </v>
   <v>       0.29160842      -0.02477628      -2.84069020 </v>
   <v>       0.58912818       0.02966811       2.10433860 </v>
   <v>       0.17098426       0.15798762      -2.89348666 </v>
   <v>      -0.04914556       0.14102592       2.98400995 </v>
   <v>       0.34725067       0.68564750      -2.15680830 </v>
   <v>      -0.33716509       0.70456169       2.13554332 </v>
   <v>       0.74499276      -0.00309102      -1.44310765 </v>
   <v>      -0.05724766      -0.00778152       0.76252592 </v>
   <v>       0.07744821      -0.09209844      -2.90400414 </v>
   <v>       0.65881298      -0.16784864       2.10544615 </v>
   <v>      -0.24228749       0.53666272      -1.41322285 </v>
   <v>      -0.62403928       0.53251319       2.10324748 </v>
   <v>      -0.32588851      -0.67215932      -1.41680812 </v>
   <v>      -0.38376094      -0.67473971       2.14828530 </v>
   <v>       0.51896750      -0.67737029      -2.18530813 </v>
   <v>      -0.50742474      -0.70508279       2.17304593 </v>
   <v>      -0.64006370       0.16743674      -2.14766881 </v>
   <v>      -0.20132557       0.16187376       2.88458143 </v>
  </varray>
  <varray name="stress" >
   <v>       7.25840002      -0.04992194      -1.51380701 </v>
   <v>      -0.04992199       4.49725145      -0.05231679 </v>
   <v>      -1.51380695      -0.05231684      30.31651724 </v>
  </varray>
  <energy>
   <i name="e_fr_energy">   -186.84670118 </i>
   <i name="e_wo_entrp">   -186.67569521 </i>
   <i name="e_0_energy">     -0.34201194 </i>
  </energy>
  <time name="totalsc">  788.77  790.87</time>
 </calculation>
 <calculation>
  <scstep>
   <time name="dav">   21.75   21.80</time>
   <time name="total">   22.30   22.35</time>
   <energy>
    <i name="alphaZ">     78.92098408 </i>
    <i name="ewald">  39378.92757715 </i>
    <i name="hartreedc"> -45336.23392545 </i>
    <i name="XCdc">   -239.06934137 </i>
    <i name="pawpsdc">   4192.07111585 </i>
    <i name="pawaedc">  -3610.07281588 </i>
    <i name="eentropy">     -0.27929745 </i>
    <i name="bandstr">  -1413.20578836 </i>
    <i name="atom">   6761.44252427 </i>
    <i name="e_fr_energy">   -187.49896716 </i>
    <i name="e_wo_entrp">   -187.21966970 </i>
    <i name="e_0_energy">   -187.35931843 </i>
   </energy>
  </scstep>
  <scstep>
   <time name="dav">   30.33   30.40</time>
   <time name="total">   30.87   30.95</time>
   <energy>
    <i name="e_fr_energy">   -189.38161701 </i>
    <i name="e_wo_entrp">   -189.05612764 </i>
    <i name="e_0_energy">   -189.21887233 </i>
   </energy>
  </scstep>
  <scstep>
   <time name="dav">   30.47   30.55</time>
   <time name="total">   31.02   31.11</time>
   <energy>
    <i name="e_fr_energy">   -189.35365754 </i>
    <i name="e_wo_entrp">   -189.09673536 </i>
    <i name="e_0_energy">   -189.22519645 </i>
   </energy>
  </scstep>
  <scstep>
   <time name="dav">   29.34   29.41</time>
   <time name="total">   29.89   29.97</time>
   <energy>
    <i name="e_fr_energy">   -188.75431898 </i>
    <i name="e_wo_entrp">   -188.47366849 </i>
    <i name="e_0_energy">   -188.61399373 </i>
   </energy>
  </scstep>
  <scstep>
   <time name="dav">   29.13   29.20</time>
   <time name="total">   29.67   29.75</time>
   <energy>
    <i name="e_fr_energy">   -188.86918509 </i>
    <i name="e_wo_entrp">   -188.58228245 </i>
    <i name="e_0_energy">   -188.72573377 </i>
   </energy>
  </scstep>
  <scstep>
   <time name="dav">   30.96   31.04</time>
   <time name="total">   31.51   31.59</time>
   <energy>
    <i name="e_fr_energy">   -188.73745559 </i>
    <i name="e_wo_entrp">   -188.45601708 </i>
    <i name="e_0_energy">   -188.59673633 </i>
   </energy>
  </scstep>
  <scstep>
   <time name="dav">   29.50   29.57</time>
   <time name="total">   30.05   30.13</time>
   <energy>
    <i name="e_fr_energy">   -188.68696307 </i>
    <i name="e_wo_entrp">   -188.40539607 </i>
    <i name="e_0_energy">   -188.54617957 </i>
   </energy>
  </scstep>
  <scstep>
   <time name="dav">   30.50   30.57</time>
   <time name="total">   31.05   31.13</time>
   <energy>
    <i name="e_fr_energy">   -188.68388217 </i>
    <i name="e_wo_entrp">   -188.40157278 </i>
    <i name="e_0_energy">   -188.54272747 </i>
   </energy>
  </scstep>
  <scstep>
   <time name="dav">   29.15   29.22</time>
   <time name="total">   29.70   29.78</time>
   <energy>
    <i name="e_fr_energy">   -188.65590388 </i>
    <i name="e_wo_entrp">   -188.37667141 </i>
    <i name="e_0_energy">   -188.51628764 </i>
   </energy>
  </scstep>
  <scstep>
   <time name="dav">   31.48   31.56</time>
   <time name="total">   32.03   32.12</time>
   <energy>
    <i name="e_fr_energy">   -188.65497222 </i>
    <i name="e_wo_entrp">   -188.37673564 </i>
    <i name="e_0_energy">   -188.51585393 </i>
   </energy>
  </scstep>
  <scstep>
   <time name="dav">   30.88   30.95</time>
   <time name="total">   31.43   31.51</time>
   <energy>
    <i name="e_fr_energy">   -188.65453557 </i>
    <i name="e_wo_entrp">   -188.37697657 </i>
    <i name="e_0_energy">   -188.51575607 </i>
   </energy>
  </scstep>
  <scstep>
   <time name="dav">   28.08   28.15</time>
   <time name="total">   28.12   28.19</time>
   <energy>
    <i name="alphaZ">     78.92098408 </i>
    <i name="ewald">  39378.92757715 </i>
    <i name="hartreedc"> -45347.21536389 </i>
    <i name="XCdc">   -237.97742560 </i>
    <i name="pawpsdc">   3952.39797180 </i>
    <i name="pawaedc">  -3366.92312859 </i>
    <i name="eentropy">     -0.27771258 </i>
    <i name="bandstr">  -1407.94997725 </i>
    <i name="atom">   6761.44252427 </i>
    <i name="e_fr_energy">   -188.65455060 </i>
    <i name="e_wo_entrp">   -188.37683803 </i>
    <i name="e_0_energy">   -188.51569431 </i>
   </energy>
  </scstep>
  <structure>
   <crystal>
    <varray name="basis" >
     <v>       8.85326426       5.10500719       0.00000000 </v>
     <v>      -8.85473545       5.10753847       0.00000000 </v>
     <v>       0.00000000       0.00000000      30.00000000 </v>
    </varray>
    <i name="volume">   2712.65627814 </i>
    <varray name="rec_basis" >
     <v>       0.05648565       0.09792692       0.00000000 </v>
     <v>      -0.05645766       0.09791065       0.00000000 </v>
     <v>       0.00000000       0.00000000       0.03333333 </v>
    </varray>
   </crystal>
   <varray name="positions" >
    <v>       0.66731427       0.00057346       0.00007773 </v>
    <v>       0.66855000       0.33462395       0.00002042 </v>
    <v>       0.33318153      -0.00059186       0.00004787 </v>
    <v>       0.66801259       0.66654330      -0.00015257 </v>
    <v>      -0.00157658       0.66511579      -0.00019074 </v>
    <v>       0.99985667       0.33475732       0.00010717 </v>
    <v>      -0.00168237      -0.00169099      -0.00023454 </v>
    <v>       0.33374059       0.33454559       0.00010553 </v>
    <v>       0.33207522       0.66576699       0.00021925 </v>
    <v>       0.11137783       0.22151993       0.95083191 </v>
    <v>       0.22423085       0.10918805       0.04798396 </v>
    <v>       0.11191694       0.55606357       0.95074701 </v>
    <v>       0.22298803       0.44483013       0.04939855 </v>
    <v>       0.11493271       0.89143185       0.95193165 </v>
    <v>       0.22488378       0.78166186       0.04803414 </v>
    <v>       0.44607635       0.22036233       0.95307935 </v>
    <v>       0.55558664       0.11080714       0.04582621 </v>
    <v>       0.44379315       0.55512690       0.95073009 </v>
    <v>       0.55681276       0.44138221       0.04798574 </v>
    <v>       0.44591283       0.89235900       0.95312740 </v>
    <v>       0.55659557       0.78163657       0.04798221 </v>
    <v>       0.77322818       0.22013954       0.95312164 </v>
    <v>       0.88481949       0.10852351       0.04805463 </v>
    <v>       0.77555377       0.55109742       0.95188582 </v>
    <v>       0.88433022       0.44205568       0.04809445 </v>
    <v>       0.77637239       0.89169857       0.95194635 </v>
    <v>       0.88933107       0.77868664       0.04923866 </v>
   </varray>
  </structure>
  <varray name="forces" >
   <v>       0.10007020       0.11423976       0.08439797 </v>
   <v>       0.04986712       0.32956373      -0.01066793 </v>
   <v>       0.03320322      -0.09781407       0.00243787 </v>
   <v>       0.25398842       0.21616055       0.04076927 </v>
   <v>      -0.05792508      -0.27694967      -0.03014316 </v>
   <v>      -0.09179060       0.43802375      -0.03393953 </v>
   <v>       0.03957412      -0.39820135      -0.03725486 </v>
   <v>      -0.42520900       0.18364146      -0.04743454 </v>
   <v>       0.12637597      -0.48783199       0.05973565 </v>
   <v>       0.11005477       0.00254104       0.10068026 </v>
   <v>      -0.10456538       0.00450235      -0.14474780 </v>
   <v>       0.04956624       0.12037069      -0.13748109 </v>
   <v>       0.06061950       0.10685801       0.18102670 </v>
   <v>      -0.11031482       0.04063718       0.00992879 </v>
   <v>       0.11229449       0.04026226      -0.04889394 </v>
   <v>      -0.08433413       0.01008873       0.24295279 </v>
   <v>      -0.00715211       0.01099283      -0.19588939 </v>
   <v>      -0.07780595      -0.08424312       0.01383930 </v>
   <v>      -0.00528759      -0.10954764      -0.01797708 </v>
   <v>       0.06044149      -0.05480036       0.16064765 </v>
   <v>      -0.07977212      -0.05371322      -0.13704885 </v>
   <v>      -0.02631741      -0.05688744       0.07486482 </v>
   <v>       0.10030126      -0.04500747      -0.06477965 </v>
   <v>       0.04542468      -0.08378406      -0.19628892 </v>
   <v>      -0.03650800      -0.08605941       0.15143807 </v>
   <v>       0.01221398       0.10337594      -0.11124230 </v>
   <v>      -0.04701331       0.11358153       0.09106989 </v>
  </varray>
  <varray name="stress" >
   <v>     -19.99206698      -0.01077451       0.01054895 </v>
   <v>      -0.01077441     -19.58194490      -0.01046499 </v>
   <v>       0.01054894      -0.01046493      -1.80541730 </v>
  </varray>
  <energy>
   <i name="e_fr_energy">   -188.65455060 </i>
   <i name="e_wo_entrp">   -188.51569431 </i>
   <i name="e_0_energy">     -0.27771258 </i>
  </energy>
  <time name="totalsc">  400.63  401.69</time>
 </calculation>
 <calculation>
  <scstep>
   <time name="dav">   23.92   23.98</time>
   <time name="total">   24.46   24.52</time>
   <energy>
    <i name="alphaZ">     82.34624253 </i>
    <i name="ewald">  41302.52338959 </i>
    <i name="hartreedc"> -47301.40307506 </i>
    <i name="XCdc">   -233.85627868 </i>
    <i name="pawpsdc">   3950.55351840 </i>
    <i name="pawaedc">  -3365.05707015 </i>
    <i name="eentropy">     -0.23207543 </i>
    <i name="bandstr">  -1386.89340398 </i>
    <i name="atom">   6761.44252427 </i>
    <i name="e_fr_energy">   -190.57622851 </i>
    <i name="e_wo_entrp">   -190.34415308 </i>
    <i name="e_0_energy">   -190.46019080 </i>
   </energy>
  </scstep>
  <scstep>
   <time name="dav">   28.66   28.73</time>
   <time name="total">   29.19   29.27</time>
   <energy>
    <i name="e_fr_energy">   -190.52553953 </i>
    <i name="e_wo_entrp">   -190.30836651 </i>
    <i name="e_0_energy">   -190.41695302 </i>
   </energy>
  </scstep>
  <scstep>
   <time name="dav">   30.25   30.33</time>
   <time name="total">   30.79   30.87</time>
   <energy>
    <i name="e_fr_energy">   -190.05976450 </i>
    <i name="e_wo_entrp">   -189.81001379 </i>
    <i name="e_0_energy">   -189.93488915 </i>
   </energy>
  </scstep>
  <scstep>
   <time name="dav">   31.77   31.85</time>
   <time name="total">   32.31   32.39</time>
   <energy>
    <i name="e_fr_energy">   -189.84866983 </i>
    <i name="e_wo_entrp">   -189.62607695 </i>
    <i name="e_0_energy">   -189.73737339 </i>
   </energy>
  </scstep>
  <scstep>
   <time name="dav">   30.05   30.12</time>
   <time name="total">   30.58   30.66</time>
   <energy>
    <i name="e_fr_energy">   -189.81304740 </i>
    <i name="e_wo_entrp">   -189.57215165 </i>
    <i name="e_0_energy">   -189.69259952 </i>
   </energy>
  </scstep>
  <scstep>
   <time name="dav">   31.11   31.19</time>
   <time name="total">   31.65   31.73</time>
   <energy>
    <i name="e_fr_energy">   -189.74749813 </i>
    <i name="e_wo_entrp">   -189.51647317 </i>
    <i name="e_0_energy">   -189.63198565 </i>
   </energy>
  </scstep>
  <scstep>
   <time name="dav">   28.88   28.95</time>
   <time name="total">   29.41   29.49</time>
   <energy>
    <i name="e_fr_energy">   -189.74270670 </i>
    <i name="e_wo_entrp">   -189.50981313 </i>
    <i name="e_0_energy">   -189.62625991 </i>
   </energy>
  </scstep>
  <scstep>
   <time name="dav">   30.97   31.05</time>
   <time name="total">   31.51   31.59</time>
   <energy>
    <i name="e_fr_energy">   -189.74290915 </i>
    <i name="e_wo_entrp">   -189.51056835 </i>
    <i name="e_0_energy">   -189.62673875 </i>
   </energy>
  </scstep>
  <scstep>
   <time name="dav">   28.39   28.46</time>
   <time name="total">   28.92   29.00</time>
   <energy>
    <i name="e_fr_energy">   -189.74190414 </i>
    <i name="e_wo_entrp">   -189.50943833 </i>
    <i name="e_0_energy">   -189.62567123 </i>
   </energy>
  </scstep>
  <scstep>
   <time name="dav">   25.36   25.42</time>
   <time name="total">   25.89   25.96</time>
   <energy>
    <i name="e_fr_energy">   -189.74215510 </i>
    <i name="e_wo_entrp">   -189.50943073 </i>
    <i name="e_0_energy">   -189.62579291 </i>
   </energy>
  </scstep>
  <scstep>
   <time name="dav">   21.77   21.82</time>
   <time name="total">   21.81   21.87</time>
   <energy>
    <i name="alphaZ">     82.34624253 </i>
    <i name="ewald">  41302.52338959 </i>
    <i name="hartreedc"> -47274.49570193 </i>
    <i name="XCdc">   -235.25030798 </i>
    <i name="pawpsdc">   4038.05724245 </i>
    <i name="pawaedc">  -3453.75101730 </i>
    <i name="eentropy">     -0.23268851 </i>
    <i name="bandstr">  -1410.38176466 </i>
    <i name="atom">   6761.44252427 </i>
    <i name="e_fr_energy">   -189.74208152 </i>
    <i name="e_wo_entrp">   -189.50939302 </i>
    <i name="e_0_energy">   -189.62573727 </i>
   </energy>
  </scstep>
  <structure>
   <crystal>
    <varray name="basis" >
     <v>       8.66519259       4.99871687       0.00000000 </v>
     <v>      -8.66674942       5.00139817       0.00000000 </v>
     <v>       0.00000000       0.00000000      30.00000000 </v>
    </varray>
    <i name="volume">   2599.82114987 </i>
    <varray name="rec_basis" >
     <v>       0.05771241       0.10000783       0.00000000 </v>
     <v>      -0.05768147       0.09998987       0.00000000 </v>
     <v>       0.00000000       0.00000000       0.03333333 </v>
    </varray>
   </crystal>
   <varray name="positions" >
    <v>       0.66759953       0.00066723       0.00012539 </v>
    <v>       0.66914442       0.33512286       0.00001440 </v>
    <v>       0.33305104      -0.00078585       0.00004925 </v>
    <v>       0.66861420       0.66665891      -0.00012955 </v>
    <v>      -0.00209143       0.66471184      -0.00020776 </v>
    <v>       1.00049546       0.33557160       0.00008801 </v>
    <v>      -0.00230507      -0.00238929      -0.00025557 </v>
    <v>       0.33363836       0.33525684       0.00007874 </v>
    <v>       0.33138690       0.66483702       0.00025298 </v>
    <v>       0.11148735       0.22141889       0.95088876 </v>
    <v>       0.22413826       0.10929552       0.04790223 </v>
    <v>       0.11216405       0.55621581       0.95066938 </v>
    <v>       0.22322329       0.44494939       0.04950077 </v>
    <v>       0.11489457       0.89160476       0.95193726 </v>
    <v>       0.22505802       0.78162124       0.04800653 </v>
    <v>       0.44601239       0.22045972       0.95321653 </v>
    <v>       0.55559803       0.11083221       0.04571560 </v>
    <v>       0.44357895       0.55506159       0.95073791 </v>
    <v>       0.55662597       0.44120557       0.04797559 </v>
    <v>       0.44587975       0.89221031       0.95321811 </v>
    <v>       0.55643014       0.78162377       0.04790482 </v>
    <v>       0.77310863       0.22007036       0.95316391 </v>
    <v>       0.88484081       0.10835293       0.04801805 </v>
    <v>       0.77545825       0.55091502       0.95177499 </v>
    <v>       0.88415253       0.44194786       0.04817996 </v>
    <v>       0.77655556       0.89185835       0.95188353 </v>
    <v>       0.88947450       0.77891999       0.04929008 </v>
   </varray>
  </structure>
  <varray name="forces" >
   <v>       0.15959894       0.10269096       0.07179099 </v>
   <v>       0.01046215       0.34779323      -0.01498398 </v>
   <v>      -0.00650947      -0.13819757      -0.00587669 </v>
   <v>       0.25683300       0.24888659       0.05561575 </v>
   <v>      -0.08571070      -0.24688311      -0.00082939 </v>
   <v>      -0.02154788       0.54142789      -0.04065022 </v>
   <v>       0.06910280      -0.40155208       0.00144759 </v>
   <v>      -0.52181638       0.15780716      -0.06021842 </v>
   <v>       0.17982019      -0.58211110       0.02499074 </v>
   <v>       0.04041673      -0.00386467      -0.43488438 </v>
   <v>       0.02812880       0.00191444       0.33562659 </v>
   <v>      -0.00002785       0.06187365      -0.69648744 </v>
   <v>       0.02418378       0.03348703       0.78824297 </v>
   <v>       0.01863300       0.09848750      -0.49251759 </v>
   <v>      -0.01729545       0.08903700       0.44291810 </v>
   <v>       0.06701637       0.01382964      -0.19281369 </v>
   <v>      -0.01655703       0.01587027       0.21172428 </v>
   <v>      -0.04548671      -0.00285323      -0.53559948 </v>
   <v>       0.11050811      -0.04306613       0.47459938 </v>
   <v>      -0.00798469       0.06734350      -0.27827181 </v>
   <v>      -0.07388402       0.07111211       0.34307067 </v>
   <v>      -0.05941434      -0.11275950      -0.36437956 </v>
   <v>      -0.01325182      -0.09019147       0.41562064 </v>
   <v>       0.09091448      -0.15630206      -0.70824252 </v>
   <v>      -0.07672014      -0.14531924       0.64571972 </v>
   <v>      -0.11347636       0.02028891      -0.63223092 </v>
   <v>       0.00406448       0.05125031       0.64661866 </v>
  </varray>
  <varray name="stress" >
   <v>     -10.20249901       0.01288514      -0.01875201 </v>
   <v>       0.01288515      -9.88947488       0.00018353 </v>
   <v>      -0.01875193       0.00018344       6.51932139 </v>
  </varray>
  <energy>
   <i name="e_fr_energy">   -189.74208152 </i>
   <i name="e_wo_entrp">   -189.62573727 </i>
   <i name="e_0_energy">     -0.23268851 </i>
  </energy>
  <time name="totalsc">  358.84  359.79</time>
 </calculation>
 <calculation>
  <scstep>
   <time name="dav">   21.82   21.87</time>
   <time name="total">   22.34   22.40</time>
   <energy>
    <i name="alphaZ">     85.83230279 </i>
    <i name="ewald">  42838.26597776 </i>
    <i name="hartreedc"> -48854.87062504 </i>
    <i name="XCdc">   -232.95718556 </i>
    <i name="pawpsdc">   4038.56477420 </i>
    <i name="pawaedc">  -3454.25935850 </i>
    <i name="eentropy">     -0.19036338 </i>
    <i name="bandstr">  -1373.14551928 </i>
    <i name="atom">   6761.44252427 </i>
    <i name="e_fr_energy">   -191.31747273 </i>
    <i name="e_wo_entrp">   -191.12710935 </i>
    <i name="e_0_energy">   -191.22229104 </i>
   </energy>
  </scstep>
  <scstep>
   <time name="dav">   32.67   32.75</time>
   <time name="total">   33.19   33.28</time>
   <energy>
    <i name="e_fr_energy">   -191.11797528 </i>
    <i name="e_wo_entrp">   -190.92927247 </i>
    <i name="e_0_energy">   -191.02362387 </i>
   </energy>
  </scstep>
  <scstep>
   <time name="dav">   30.08   30.15</time>
   <time name="total">   30.59   30.67</time>
   <energy>
    <i name="e_fr_energy">   -191.31220635 </i>
    <i name="e_wo_entrp">   -191.09717452 </i>
    <i name="e_0_energy">   -191.20469043 </i>
   </energy>
  </scstep>
  <scstep>
   <time name="dav">   29.31   29.38</time>
   <time name="total">   29.84   29.92</time>
   <energy>
    <i name="e_fr_energy">   -190.90050444 </i>
    <i name="e_wo_entrp">   -190.70302959 </i>
    <i name="e_0_energy">   -190.80176701 </i>
   </energy>
  </scstep>
  <scstep>
   <time name="dav">   27.82   27.89</time>
   <time name="total">   28.34   28.42</time>
   <energy>
    <i name="e_fr_energy">   -190.90286102 </i>
    <i name="e_wo_entrp">   -190.71911001 </i>
    <i name="e_0_energy">   -190.81098552 </i>
   </energy>
  </scstep>
  <scstep>
   <time name="dav">   29.80   29.87</time>
   <time name="total">   30.32   30.40</time>
   <energy>
    <i name="e_fr_energy">   -190.73279468 </i>
    <i name="e_wo_entrp">   -190.53722251 </i>
    <i name="e_0_energy">   -190.63500860 </i>
   </energy>
  </scstep>
  <scstep>
   <time name="dav">   30.56   30.64</time>
   <time name="total">   31.09   31.17</time>
   <energy>
    <i name="e_fr_energy">   -190.73287322 </i>
    <i name="e_wo_entrp">   -190.53802716 </i>
    <i name="e_0_energy">   -190.63545019 </i>
   </energy>
  </scstep>
  <scstep>
   <time name="dav">   28.99   29.06</time>
   <time name="total">   29.51   29.59</time>
   <energy>
    <i name="e_fr_energy">   -190.73057073 </i>
    <i name="e_wo_entrp">   -190.53568939 </i>
    <i name="e_0_energy">   -190.63313006 </i>
   </energy>
  </scstep>
  <scstep>
   <time name="dav">   28.84   28.91</time>
   <time name="total">   29.37   29.44</time>
   <energy>
    <i name="e_fr_energy">   -190.72846887 </i>
    <i name="e_wo_entrp">   -190.53351402 </i>
    <i name="e_0_energy">   -190.63099145 </i>
   </energy>
  </scstep>
  <scstep>
   <time name="dav">   27.47   27.54</time>
   <time name="total">   27.99   28.06</time>
   <energy>
    <i name="e_fr_energy">   -190.72873357 </i>
    <i name="e_wo_entrp">   -190.53366355 </i>
    <i name="e_0_energy">   -190.63119856 </i>
   </energy>
  </scstep>
  <scstep>
   <time name="dav">   25.97   26.03</time>
   <time name="total">   26.49   26.56</time>
   <energy>
    <i name="e_fr_energy">   -190.72854665 </i>
    <i name="e_wo_entrp">   -190.53343252 </i>
    <i name="e_0_energy">   -190.63098959 </i>
   </energy>
  </scstep>
  <scstep>
   <time name="dav">   19.70   19.75</time>
   <time name="total">   19.74   19.79</time>
   <energy>
    <i name="alphaZ">     85.83230279 </i>
    <i name="ewald">  42838.26597776 </i>
    <i name="hartreedc"> -48826.28360738 </i>
    <i name="XCdc">   -234.29585412 </i>
    <i name="pawpsdc">   4063.51561977 </i>
    <i name="pawaedc">  -3479.38352873 </i>
    <i name="eentropy">     -0.19515473 </i>
    <i name="bandstr">  -1399.62682952 </i>
    <i name="atom">   6761.44252427 </i>
    <i name="e_fr_energy">   -190.72854988 </i>
    <i name="e_wo_entrp">   -190.53339515 </i>
    <i name="e_0_energy">   -190.63097252 </i>
   </energy>
  </scstep>
  <structure>
   <crystal>
    <varray name="basis" >
     <v>       8.48366033       4.89930462       0.00000000 </v>
     <v>      -8.48432583       4.90044403       0.00000000 </v>
     <v>       0.00000000       0.00000000      30.00000000 </v>
    </varray>
    <i name="volume">   2494.22998072 </i>
    <varray name="rec_basis" >
     <v>       0.05894137       0.10204744       0.00000000 </v>
     <v>      -0.05892766       0.10203943       0.00000000 </v>
     <v>       0.00000000       0.00000000       0.03333333 </v>
    </varray>
   </crystal>
   <varray name="positions" >
    <v>       0.66887615       0.00061886       0.00026319 </v>
    <v>       0.67134833       0.33736449      -0.00002028 </v>
    <v>       0.33200397      -0.00167111       0.00003001 </v>
    <v>       0.67118641       0.66736700      -0.00000184 </v>
    <v>      -0.00391163       0.66359134      -0.00018451 </v>
    <v>       1.00416732       0.33919578      -0.00000181 </v>
    <v>      -0.00453507      -0.00520330      -0.00021962 </v>
    <v>       0.33253668       0.33820388      -0.00005674 </v>
    <v>       0.32823359       0.66023101       0.00027509 </v>
    <v>       0.11149268       0.22133316       0.94953289 </v>
    <v>       0.22443692       0.10900804       0.04900574 </v>
    <v>       0.11233338       0.55652841       0.94875230 </v>
    <v>       0.22328417       0.44494067       0.05164875 </v>
    <v>       0.11590932       0.89211265       0.95049035 </v>
    <v>       0.22548795       0.78254996       0.04934176 </v>
    <v>       0.44656892       0.22009529       0.95244649 </v>
    <v>       0.55563619       0.11101711       0.04650079 </v>
    <v>       0.44364700       0.55536498       0.94916185 </v>
    <v>       0.55708912       0.44053618       0.04937702 </v>
    <v>       0.44647936       0.89306493       0.95226858 </v>
    <v>       0.55692917       0.78263949       0.04902351 </v>
    <v>       0.77200045       0.21948710       0.95203594 </v>
    <v>       0.88395135       0.10788701       0.04928709 </v>
    <v>       0.77469244       0.54936130       0.94987365 </v>
    <v>       0.88275922       0.44122509       0.04993688 </v>
    <v>       0.77588326       0.89236862       0.95013177 </v>
    <v>       0.88972781       0.77899650       0.05110105 </v>
   </varray>
  </structure>
  <varray name="forces" >
   <v>       0.16621910       0.07319867       0.02073667 </v>
   <v>      -0.00034644       0.28920976      -0.02202833 </v>
   <v>       0.00526474      -0.11731992      -0.02107319 </v>
   <v>       0.27912436       0.34159167       0.02585510 </v>
   <v>      -0.15647823      -0.19328515       0.03067825 </v>
   <v>       0.05393557       0.67249196      -0.02055840 </v>
   <v>       0.15155646      -0.48070797       0.03242576 </v>
   <v>      -0.63330096       0.12439673      -0.03723499 </v>
   <v>       0.19405434      -0.66928362      -0.02668276 </v>
   <v>      -0.00621082      -0.03722527      -0.25464853 </v>
   <v>      -0.03635212       0.00237000       0.15093232 </v>
   <v>      -0.06196461       0.02623964      -0.52240060 </v>
   <v>      -0.01964363      -0.02211624       0.72150205 </v>
   <v>       0.02298469      -0.01578428      -0.37234275 </v>
   <v>       0.00622439      -0.02578300       0.28013874 </v>
   <v>      -0.01262738       0.03669981      -0.09051740 </v>
   <v>      -0.01524045       0.03458164       0.21808390 </v>
   <v>      -0.01366861       0.08956448      -0.35355240 </v>
   <v>       0.03581873      -0.00767797       0.27491188 </v>
   <v>       0.03869241      -0.02267832      -0.14406811 </v>
   <v>      -0.01669624      -0.01931109       0.18010066 </v>
   <v>       0.00144969       0.03107381      -0.23718646 </v>
   <v>      -0.03190078       0.02698120       0.22673331 </v>
   <v>       0.04901817      -0.06001696      -0.53292962 </v>
   <v>      -0.01082487      -0.04436897       0.43587282 </v>
   <v>      -0.03659045      -0.02589463      -0.46529539 </v>
   <v>       0.04750296      -0.00694598       0.50254749 </v>
  </varray>
  <varray name="stress" >
   <v>      -5.87911861      -0.06772376      -0.01255894 </v>
   <v>      -0.06772385      -5.72776326      -0.08545185 </v>
   <v>      -0.01255920      -0.08545185       4.55023487 </v>
  </varray>
  <energy>
   <i name="e_fr_energy">   -190.72854988 </i>
   <i name="e_wo_entrp">   -190.63097252 </i>
   <i name="e_0_energy">     -0.19515473 </i>
  </energy>
  <time name="totalsc">  380.70  381.71</time>
 </calculation>
 <calculation>
  <scstep>
   <time name="dav">   21.76   21.81</time>
   <time name="total">   22.27   22.32</time>
   <energy>
    <i name="alphaZ">     90.23364322 </i>
    <i name="ewald">  44692.91897534 </i>
    <i name="hartreedc"> -50736.56076736 </i>
    <i name="XCdc">   -231.80581861 </i>
    <i name="pawpsdc">   4063.45559191 </i>
    <i name="pawaedc">  -3479.32012593 </i>
    <i name="eentropy">     -0.17703765 </i>
    <i name="bandstr">  -1352.35277155 </i>
    <i name="atom">   6761.44252427 </i>
    <i name="e_fr_energy">   -192.16578636 </i>
    <i name="e_wo_entrp">   -191.98874872 </i>
    <i name="e_0_energy">   -192.07726754 </i>
   </energy>
  </scstep>
  <scstep>
   <time name="dav">   27.47   27.53</time>
   <time name="total">   27.97   28.05</time>
   <energy>
    <i name="e_fr_energy">   -191.88522678 </i>
    <i name="e_wo_entrp">   -191.69215264 </i>
    <i name="e_0_energy">   -191.78868971 </i>
   </energy>
  </scstep>
  <scstep>
   <time name="dav">   29.85   29.92</time>
   <time name="total">   30.36   30.44</time>
   <energy>
    <i name="e_fr_energy">   -192.36231259 </i>
    <i name="e_wo_entrp">   -192.17849808 </i>
    <i name="e_0_energy">   -192.27040534 </i>
   </energy>
  </scstep>
  <scstep>
   <time name="dav">   28.77   28.83</time>
   <time name="total">   29.28   29.36</time>
   <energy>
    <i name="e_fr_energy">   -191.68098351 </i>
    <i name="e_wo_entrp">   -191.50031404 </i>
    <i name="e_0_energy">   -191.59064878 </i>
   </energy>
  </scstep>
  <scstep>
   <time name="dav">   30.07   30.14</time>
   <time name="total">   30.58   30.66</time>
   <energy>
    <i name="e_fr_energy">   -191.62713027 </i>
    <i name="e_wo_entrp">   -191.43089501 </i>
    <i name="e_0_energy">   -191.52901264 </i>
   </energy>
  </scstep>
  <scstep>
   <time name="dav">   30.23   30.30</time>
   <time name="total">   30.74   30.82</time>
   <energy>
    <i name="e_fr_energy">   -191.47395359 </i>
    <i name="e_wo_entrp">   -191.28852679 </i>
    <i name="e_0_energy">   -191.38124019 </i>
   </energy>
  </scstep>
  <scstep>
   <time name="dav">   31.03   31.11</time>
   <time name="total">   31.55   31.63</time>
   <energy>
    <i name="e_fr_energy">   -191.46519795 </i>
    <i name="e_wo_entrp">   -191.28281074 </i>
    <i name="e_0_energy">   -191.37400435 </i>
   </energy>
  </scstep>
  <scstep>
   <time name="dav">   30.26   30.33</time>
   <time name="total">   30.77   30.85</time>
   <energy>
    <i name="e_fr_energy">   -191.44622511 </i>
    <i name="e_wo_entrp">   -191.25967690 </i>
    <i name="e_0_energy">   -191.35295100 </i>
   </energy>
  </scstep>
  <scstep>
   <time name="dav">   28.25   28.32</time>
   <time name="total">   28.77   28.84</time>
   <energy>
    <i name="e_fr_energy">   -191.44366754 </i>
    <i name="e_wo_entrp">   -191.25798553 </i>
    <i name="e_0_energy">   -191.35082654 </i>
   </energy>
  </scstep>
  <scstep>
   <time name="dav">   28.74   28.81</time>
   <time name="total">   29.25   29.33</time>
   <energy>
    <i name="e_fr_energy">   -191.44383190 </i>
    <i name="e_wo_entrp">   -191.25764111 </i>
    <i name="e_0_energy">   -191.35073650 </i>
   </energy>
  </scstep>
  <scstep>
   <time name="dav">   26.27   26.33</time>
   <time name="total">   26.31   26.38</time>
   <energy>
    <i name="alphaZ">     90.23364322 </i>
    <i name="ewald">  44692.91897534 </i>
    <i name="hartreedc"> -50702.23050204 </i>
    <i name="XCdc">   -233.32853067 </i>
    <i name="pawpsdc">   4086.81778973 </i>
    <i name="pawaedc">  -3502.78924178 </i>
    <i name="eentropy">     -0.18619953 </i>
    <i name="bandstr">  -1384.32221798 </i>
    <i name="atom">   6761.44252427 </i>
    <i name="e_fr_energy">   -191.44375944 </i>
    <i name="e_wo_entrp">   -191.25755990 </i>
    <i name="e_0_energy">   -191.35065967 </i>
   </energy>
  </scstep>
  <structure>
   <crystal>
    <varray name="basis" >
     <v>       8.26835485       4.77771572       0.00000000 </v>
     <v>      -8.27244103       4.78477849       0.00000000 </v>
     <v>       0.00000000       0.00000000      30.00000000 </v>
    </varray>
    <i name="volume">   2372.56853760 </i>
    <varray name="rec_basis" >
     <v>       0.06050125       0.10460108       0.00000000 </v>
     <v>      -0.06041194       0.10454941       0.00000000 </v>
     <v>       0.00000000       0.00000000       0.03333333 </v>
    </varray>
   </crystal>
   <varray name="positions" >
    <v>       0.67106941       0.00026037       0.00036129 </v>
    <v>       0.67500325       0.34113535      -0.00010920 </v>
    <v>       0.33036604      -0.00322782      -0.00005467 </v>
    <v>       0.67730327       0.66954601       0.00013259 </v>
    <v>      -0.00738597       0.66230013      -0.00004923 </v>
    <v>       1.01296128       0.34713148      -0.00010174 </v>
    <v>      -0.00928536      -0.01204924      -0.00006774 </v>
    <v>       0.32948951       0.34427528      -0.00023117 </v>
    <v>       0.32131769       0.65040336       0.00016128 </v>
    <v>       0.11095515       0.22102779       0.94788382 </v>
    <v>       0.22448406       0.10900278       0.05018624 </v>
    <v>       0.11208156       0.55720510       0.94600859 </v>
    <v>       0.22273252       0.44470627       0.05518183 </v>
    <v>       0.11644970       0.89190172       0.94843386 </v>
    <v>       0.22530812       0.78276172       0.05104047 </v>
    <v>       0.44723460       0.22027919       0.95159681 </v>
    <v>       0.55591961       0.11155141       0.04777639 </v>
    <v>       0.44475897       0.55662420       0.94710108 </v>
    <v>       0.55765004       0.44005498       0.05107528 </v>
    <v>       0.44682111       0.89317575       0.95118373 </v>
    <v>       0.55704139       0.78307967       0.05030920 </v>
    <v>       0.77187658       0.21957104       0.95058077 </v>
    <v>       0.88355707       0.10829165       0.05077412 </v>
    <v>       0.77404693       0.54778517       0.94713362 </v>
    <v>       0.88166374       0.44054569       0.05228835 </v>
    <v>       0.77485433       0.89243026       0.94765876 </v>
    <v>       0.88993985       0.77844514       0.05374556 </v>
   </varray>
  </structure>
  <varray name="forces" >
   <v>       0.04910552       0.02280593       0.03189875 </v>
   <v>       0.05924759       0.13051615       0.00511311 </v>
   <v>       0.10233734      -0.03597631       0.01851245 </v>
   <v>       0.21217001       0.32513931      -0.04422184 </v>
   <v>      -0.22412228      -0.00451391      -0.00306831 </v>
   <v>       0.04634807       0.40197289       0.01961811 </v>
   <v>       0.28467555      -0.44052647       0.02736577 </v>
   <v>      -0.45943859       0.03264554       0.05797646 </v>
   <v>       0.01366178      -0.35277586      -0.04890941 </v>
   <v>      -0.03423347      -0.11042958       0.07538530 </v>
   <v>      -0.13975525      -0.00150897      -0.16064516 </v>
   <v>      -0.15786950       0.00743565      -0.21042203 </v>
   <v>      -0.03076299      -0.03675494       0.44385612 </v>
   <v>      -0.03612160      -0.12623318      -0.09636133 </v>
   <v>       0.09739357      -0.12306924      -0.01444449 </v>
   <v>      -0.22344825       0.04853523       0.13422541 </v>
   <v>       0.01020552       0.04025257       0.00839866 </v>
   <v>      -0.00105887       0.17407428      -0.06274545 </v>
   <v>      -0.09417800       0.00825887      -0.08622344 </v>
   <v>       0.12154726      -0.17988853       0.07925162 </v>
   <v>       0.04781948      -0.18225266      -0.15787318 </v>
   <v>       0.09903452       0.21730934       0.04153034 </v>
   <v>       0.02154113       0.16772271      -0.14152000 </v>
   <v>      -0.02045165       0.04779534      -0.14981394 </v>
   <v>       0.08498449       0.07085674       0.05423299 </v>
   <v>       0.07768163      -0.04635776      -0.13856893 </v>
   <v>       0.09368701      -0.05503312       0.31745241 </v>
  </varray>
  <varray name="stress" >
   <v>      -0.09399124      -0.04301527       0.29395019 </v>
   <v>      -0.04301537       0.45257911      -0.15607697 </v>
   <v>       0.29395033      -0.15607680      -0.35739868 </v>
  </varray>
  <energy>
   <i name="e_fr_energy">   -191.44375944 </i>
   <i name="e_wo_entrp">   -191.35065967 </i>
   <i name="e_0_energy">     -0.18619953 </i>
  </energy>
  <time name="totalsc">  360.57  361.52</time>
 </calculation>
 <calculation>
  <scstep>
   <time name="dav">   21.81   21.87</time>
   <time name="total">   22.33   22.38</time>
   <energy>
    <i name="alphaZ">     90.14156894 </i>
    <i name="ewald">  44626.95692477 </i>
    <i name="hartreedc"> -50636.18722439 </i>
    <i name="XCdc">   -233.49497981 </i>
    <i name="pawpsdc">   4087.26734693 </i>
    <i name="pawaedc">  -3503.23722350 </i>
    <i name="eentropy">     -0.18746665 </i>
    <i name="bandstr">  -1384.22478508 </i>
    <i name="atom">   6761.44252427 </i>
    <i name="e_fr_energy">   -191.52331452 </i>
    <i name="e_wo_entrp">   -191.33584787 </i>
    <i name="e_0_energy">   -191.42958120 </i>
   </energy>
  </scstep>
  <scstep>
   <time name="dav">   33.18   33.26</time>
   <time name="total">   33.69   33.78</time>
   <energy>
    <i name="e_fr_energy">   -191.60447470 </i>
    <i name="e_wo_entrp">   -191.40447260 </i>
    <i name="e_0_energy">   -191.50447365 </i>
   </energy>
  </scstep>
  <scstep>
   <time name="dav">   30.87   30.94</time>
   <time name="total">   31.38   31.46</time>
   <energy>
    <i name="e_fr_energy">   -191.53470292 </i>
    <i name="e_wo_entrp">   -191.34608950 </i>
    <i name="e_0_energy">   -191.44039621 </i>
   </energy>
  </scstep>
  <scstep>
   <time name="dav">   28.87   28.94</time>
   <time name="total">   29.38   29.46</time>
   <energy>
    <i name="e_fr_energy">   -191.53827949 </i>
    <i name="e_wo_entrp">   -191.34741883 </i>
    <i name="e_0_energy">   -191.44284916 </i>
   </energy>
  </scstep>
  <scstep>
   <time name="dav">   28.64   28.70</time>
   <time name="total">   29.14   29.22</time>
   <energy>
    <i name="e_fr_energy">   -191.53284543 </i>
    <i name="e_wo_entrp">   -191.34302528 </i>
    <i name="e_0_energy">   -191.43793535 </i>
   </energy>
  </scstep>
  <scstep>
   <time name="dav">   28.48   28.55</time>
   <time name="total">   28.99   29.07</time>
   <energy>
    <i name="e_fr_energy">   -191.53368604 </i>
    <i name="e_wo_entrp">   -191.34372797 </i>
    <i name="e_0_energy">   -191.43870700 </i>
   </energy>
  </scstep>
  <scstep>
   <time name="dav">   28.16   28.23</time>
   <time name="total">   28.67   28.75</time>
   <energy>
    <i name="e_fr_energy">   -191.53295549 </i>
    <i name="e_wo_entrp">   -191.34308239 </i>
    <i name="e_0_energy">   -191.43801894 </i>
   </energy>
  </scstep>
  <scstep>
   <time name="dav">   26.54   26.60</time>
   <time name="total">   27.05   27.12</time>
   <energy>
    <i name="e_fr_energy">   -191.53239799 </i>
    <i name="e_wo_entrp">   -191.34265458 </i>
    <i name="e_0_energy">   -191.43752629 </i>
   </energy>
  </scstep>
  <scstep>
   <time name="dav">   18.63   18.67</time>
   <time name="total">   18.67   18.72</time>
   <energy>
    <i name="alphaZ">     90.14156894 </i>
    <i name="ewald">  44626.95692477 </i>
    <i name="hartreedc"> -50638.23563804 </i>
    <i name="XCdc">   -233.42528872 </i>
    <i name="pawpsdc">   4084.22320401 </i>
    <i name="pawaedc">  -3500.14633082 </i>
    <i name="eentropy">     -0.18974750 </i>
    <i name="bandstr">  -1382.29962952 </i>
    <i name="atom">   6761.44252427 </i>
    <i name="e_fr_energy">   -191.53241261 </i>
    <i name="e_wo_entrp">   -191.34266511 </i>
    <i name="e_0_energy">   -191.43753886 </i>
   </energy>
  </scstep>
  <structure>
   <crystal>
    <varray name="basis" >
     <v>       8.26609879       4.78265924       0.00000000 </v>
     <v>      -8.27126056       4.79159267       0.00000000 </v>
     <v>       0.00000000       0.00000000      30.00000000 </v>
    </varray>
    <i name="volume">   2374.99197596 </i>
    <varray name="rec_basis" >
     <v>       0.06052559       0.10447943       0.00000000 </v>
     <v>      -0.06041274       0.10441423       0.00000000 </v>
     <v>       0.00000000       0.00000000       0.03333333 </v>
    </varray>
   </crystal>
   <varray name="positions" >
    <v>       0.67132070       0.00023349       0.00041208 </v>
    <v>       0.67582132       0.34160851      -0.00010077 </v>
    <v>       0.33048741      -0.00370119      -0.00002481 </v>
    <v>       0.67953732       0.67055741       0.00006138 </v>
    <v>      -0.00805079       0.66293123      -0.00005452 </v>
    <v>       1.01509206       0.34899452      -0.00007004 </v>
    <v>      -0.01065897      -0.01506960      -0.00002436 </v>
    <v>       0.32832661       0.34575625      -0.00013784 </v>
    <v>       0.31960338       0.64861853       0.00008328 </v>
    <v>       0.11030235       0.22057321       0.94800996 </v>
    <v>       0.22406975       0.10940124       0.04992492 </v>
    <v>       0.11166106       0.55769888       0.94568007 </v>
    <v>       0.22246016       0.44461176       0.05588202 </v>
    <v>       0.11570810       0.89137294       0.94828599 </v>
    <v>       0.22497314       0.78185955       0.05101185 </v>
    <v>       0.44682683       0.22117142       0.95181480 </v>
    <v>       0.55615081       0.11172252       0.04778577 </v>
    <v>       0.44562733       0.55749797       0.94700718 </v>
    <v>       0.55741567       0.44037123       0.05093171 </v>
    <v>       0.44626903       0.89191828       0.95131437 </v>
    <v>       0.55626358       0.78202358       0.05005206 </v>
    <v>       0.77325737       0.22037520       0.95065198 </v>
    <v>       0.88446423       0.10907058       0.05054261 </v>
    <v>       0.77422978       0.54808954       0.94690205 </v>
    <v>       0.88227040       0.44065707       0.05236792 </v>
    <v>       0.77485066       0.89197170       0.94744449 </v>
    <v>       0.88993512       0.77789862       0.05424573 </v>
   </varray>
  </structure>
  <varray name="forces" >
   <v>       0.01680812       0.02438222       0.04628344 </v>
   <v>       0.09861995       0.12377161      -0.01264573 </v>
   <v>       0.14650323      -0.02942084      -0.00188140 </v>
   <v>       0.22791790       0.32518777      -0.01250460 </v>
   <v>      -0.23563654      -0.00558305       0.00537281 </v>
   <v>      -0.02461245       0.40836471       0.00235912 </v>
   <v>       0.30185741      -0.44162419       0.03184394 </v>
   <v>      -0.44854288       0.07534654      -0.00622160 </v>
   <v>       0.01264990      -0.38053786      -0.02378860 </v>
   <v>      -0.00421366      -0.10407104       0.13700541 </v>
   <v>      -0.10308869      -0.01357558      -0.16485249 </v>
   <v>      -0.12267297       0.00041707      -0.13393457 </v>
   <v>      -0.06001894      -0.00034030       0.30238713 </v>
   <v>      -0.01599523      -0.07604328      -0.08547582 </v>
   <v>       0.04866294      -0.07707936      -0.01128492 </v>
   <v>      -0.17108936       0.02406707       0.18849742 </v>
   <v>       0.00736615       0.02542622      -0.03009579 </v>
   <v>       0.00081416       0.10465917       0.02305365 </v>
   <v>      -0.07402871       0.00371624      -0.11100932 </v>
   <v>       0.07773938      -0.11736346       0.06844969 </v>
   <v>       0.03565030      -0.12821246      -0.18893378 </v>
   <v>       0.07704744       0.14813777       0.06706826 </v>
   <v>       0.03933838       0.11147607      -0.17460619 </v>
   <v>      -0.00053465       0.02571046      -0.10641100 </v>
   <v>       0.04171263       0.05357421       0.02065363 </v>
   <v>       0.05926069      -0.02829750      -0.10202821 </v>
   <v>       0.06848548      -0.05208821       0.27269954 </v>
  </varray>
  <varray name="stress" >
   <v>      -0.01669248       0.02175431       0.10799985 </v>
   <v>       0.02175456       0.12071584      -0.05591431 </v>
   <v>       0.10800017      -0.05591433      -1.34611626 </v>
  </varray>
  <energy>
   <i name="e_fr_energy">   -191.53241261 </i>
   <i name="e_wo_entrp">   -191.43753886 </i>
   <i name="e_0_energy">     -0.18974750 </i>
  </energy>
  <time name="totalsc">  291.90  292.67</time>
 </calculation>
 <calculation>
  <scstep>
   <time name="dav">   21.83   21.89</time>
   <time name="total">   22.34   22.40</time>
   <energy>
    <i name="alphaZ">     90.09053960 </i>
    <i name="ewald">  44607.96743378 </i>
    <i name="hartreedc"> -50618.19305917 </i>
    <i name="XCdc">   -233.45441767 </i>
    <i name="pawpsdc">   4084.09260568 </i>
    <i name="pawaedc">  -3500.01403612 </i>
    <i name="eentropy">     -0.18680592 </i>
    <i name="bandstr">  -1383.38318099 </i>
    <i name="atom">   6761.44252427 </i>
    <i name="e_fr_energy">   -191.63839651 </i>
    <i name="e_wo_entrp">   -191.45159060 </i>
    <i name="e_0_energy">   -191.54499356 </i>
   </energy>
  </scstep>
  <scstep>
   <time name="dav">   32.01   32.09</time>
   <time name="total">   32.52   32.61</time>
   <energy>
    <i name="e_fr_energy">   -191.77821780 </i>
    <i name="e_wo_entrp">   -191.56702487 </i>
    <i name="e_0_energy">   -191.67262133 </i>
   </energy>
  </scstep>
  <scstep>
   <time name="dav">   30.48   30.55</time>
   <time name="total">   30.98   31.07</time>
   <energy>
    <i name="e_fr_energy">   -191.65843841 </i>
    <i name="e_wo_entrp">   -191.46957608 </i>
    <i name="e_0_energy">   -191.56400724 </i>
   </energy>
  </scstep>
  <scstep>
   <time name="dav">   29.78   29.85</time>
   <time name="total">   30.29   30.37</time>
   <energy>
    <i name="e_fr_energy">   -191.66733058 </i>
    <i name="e_wo_entrp">   -191.47475955 </i>
    <i name="e_0_energy">   -191.57104506 </i>
   </energy>
  </scstep>
  <scstep>
   <time name="dav">   29.01   29.08</time>
   <time name="total">   29.52   29.60</time>
   <energy>
    <i name="e_fr_energy">   -191.65325093 </i>
    <i name="e_wo_entrp">   -191.46213855 </i>
    <i name="e_0_energy">   -191.55769474 </i>
   </energy>
  </scstep>
  <scstep>
   <time name="dav">   28.69   28.76</time>
   <time name="total">   29.20   29.28</time>
   <energy>
    <i name="e_fr_energy">   -191.65591342 </i>
    <i name="e_wo_entrp">   -191.46405837 </i>
    <i name="e_0_energy">   -191.55998589 </i>
   </energy>
  </scstep>
  <scstep>
   <time name="dav">   28.90   28.97</time>
   <time name="total">   29.41   29.49</time>
   <energy>
    <i name="e_fr_energy">   -191.65322750 </i>
    <i name="e_wo_entrp">   -191.46160130 </i>
    <i name="e_0_energy">   -191.55741440 </i>
   </energy>
  </scstep>
  <scstep>
   <time name="dav">   27.24   27.30</time>
   <time name="total">   27.75   27.82</time>
   <energy>
    <i name="e_fr_energy">   -191.65212071 </i>
    <i name="e_wo_entrp">   -191.46067505 </i>
    <i name="e_0_energy">   -191.55639788 </i>
   </energy>
  </scstep>
  <scstep>
   <time name="dav">   21.91   21.96</time>
   <time name="total">   21.94   22.00</time>
   <energy>
    <i name="alphaZ">     90.09053960 </i>
    <i name="ewald">  44607.96743378 </i>
    <i name="hartreedc"> -50619.88124391 </i>
    <i name="XCdc">   -233.36888481 </i>
    <i name="pawpsdc">   4089.17007626 </i>
    <i name="pawaedc">  -3505.16404323 </i>
    <i name="eentropy">     -0.19137665 </i>
    <i name="bandstr">  -1381.71714252 </i>
    <i name="atom">   6761.44252427 </i>
    <i name="e_fr_energy">   -191.65211720 </i>
    <i name="e_wo_entrp">   -191.46074055 </i>
[...]
      <set comment="kpoint 31">
       <r>  -17.5135    1.0000 </r>
       <r>  -17.2594    1.0000 </r>
       <r>  -16.9153    1.0000 </r>
       <r>  -16.6237    1.0000 </r>
       <r>  -16.5160    1.0000 </r>
       <r>  -16.3995    1.0000 </r>
       <r>  -16.2618    1.0000 </r>
       <r>  -16.2103    1.0000 </r>
       <r>  -16.0985    1.0000 </r>
       <r>  -16.0445    1.0000 </r>
       <r>  -15.9380    1.0000 </r>
       <r>  -15.8591    1.0000 </r>
       <r>  -15.7774    1.0000 </r>
       <r>  -15.7531    1.0000 </r>
       <r>  -15.6468    1.0000 </r>
       <r>  -15.5713    1.0000 </r>
       <r>  -15.4454    1.0000 </r>
       <r>  -15.1991    1.0000 </r>
       <r>   -9.7231    1.0000 </r>
       <r>   -9.4260    1.0000 </r>
       <r>   -9.3328    1.0000 </r>
       <r>   -8.9996    1.0000 </r>
       <r>   -8.8541    1.0000 </r>
       <r>   -8.7557    1.0000 </r>
       <r>   -8.5282    1.0000 </r>
       <r>   -8.4778    1.0000 </r>
       <r>   -8.4269    1.0000 </r>
       <r>   -8.3702    1.0000 </r>
       <r>   -8.2433    1.0000 </r>
       <r>   -8.1682    1.0000 </r>
       <r>   -8.1176    1.0000 </r>
       <r>   -8.0554    1.0000 </r>
       <r>   -7.9889    1.0000 </r>
       <r>   -7.9208    1.0000 </r>
       <r>   -7.7836    1.0000 </r>
       <r>   -7.7150    1.0000 </r>
       <r>   -7.5941    1.0000 </r>
       <r>   -7.3842    1.0000 </r>
       <r>   -7.2847    1.0000 </r>
       <r>   -7.2565    1.0000 </r>
       <r>   -7.1304    1.0000 </r>
       <r>   -7.0990    1.0000 </r>
       <r>   -7.0432    1.0000 </r>
       <r>   -6.9149    1.0000 </r>
       <r>   -6.8704    1.0000 </r>
       <r>   -6.7565    1.0000 </r>
       <r>   -6.6680    1.0000 </r>
       <r>   -6.6206    1.0000 </r>
       <r>   -6.5610    1.0000 </r>
       <r>   -6.4407    1.0000 </r>
       <r>   -6.4118    1.0000 </r>
       <r>   -6.3423    1.0000 </r>
       <r>   -6.2304    1.0000 </r>
       <r>   -6.2058    1.0000 </r>
       <r>   -6.1284    1.0000 </r>
       <r>   -6.1003    1.0000 </r>
       <r>   -6.0227    1.0000 </r>
       <r>   -5.9841    1.0000 </r>
       <r>   -5.9319    1.0000 </r>
       <r>   -5.8194    1.0000 </r>
       <r>   -5.7108    1.0000 </r>
       <r>   -5.6339    1.0000 </r>
       <r>   -5.5996    1.0000 </r>
       <r>   -5.4354    1.0000 </r>
       <r>   -5.2815    1.0000 </r>
       <r>   -5.1079    1.0000 </r>
       <r>   -5.0761    1.0000 </r>
       <r>   -4.8905    1.0000 </r>
       <r>   -4.7991    1.0000 </r>
       <r>   -4.6880    1.0000 </r>
       <r>   -4.6113    1.0000 </r>
       <r>   -4.4324    1.0000 </r>
       <r>   -4.3188    1.0000 </r>
       <r>   -4.2705    1.0000 </r>
       <r>   -4.1618    1.0000 </r>
       <r>   -4.0592    1.0000 </r>
       <r>   -3.9015    1.0000 </r>
       <r>   -3.6780    0.9981 </r>
       <r>   -3.5426    0.9731 </r>
       <r>   -3.1054    0.1225 </r>
       <r>   -2.9917    0.0246 </r>
       <r>   -2.8661    0.0022 </r>
       <r>   -2.7787    0.0003 </r>
       <r>   -2.6538    0.0000 </r>
       <r>   -2.5065    0.0000 </r>
       <r>   -2.4040    0.0000 </r>
       <r>   -2.2023    0.0000 </r>
       <r>   -2.1302    0.0000 </r>
       <r>   -2.0777    0.0000 </r>
       <r>   -1.9465    0.0000 </r>
       <r>   -1.8813    0.0000 </r>
       <r>   -1.7184    0.0000 </r>
       <r>   -1.4973    0.0000 </r>
       <r>   -1.3635    0.0000 </r>
       <r>   -1.2984    0.0000 </r>
       <r>   -1.1491    0.0000 </r>
       <r>   -1.0379    0.0000 </r>
       <r>   -0.9762    0.0000 </r>
       <r>   -0.9146    0.0000 </r>
       <r>   -0.8670    0.0000 </r>
       <r>   -0.7438    0.0000 </r>
       <r>   -0.7023    0.0000 </r>
       <r>   -0.6657    0.0000 </r>
       <r>   -0.6020    0.0000 </r>
       <r>   -0.4950    0.0000 </r>
       <r>   -0.3721    0.0000 </r>
       <r>   -0.3315    0.0000 </r>
       <r>   -0.1263    0.0000 </r>
       <r>    0.0695    0.0000 </r>
       <r>    0.2220    0.0000 </r>
       <r>    0.4679    0.0000 </r>
       <r>    0.4956    0.0000 </r>
       <r>    0.7952    0.0000 </r>
       <r>    0.8865    0.0000 </r>
       <r>    1.0690    0.0000 </r>
       <r>    1.1702    0.0000 </r>
       <r>    1.3435    0.0000 </r>
       <r>    2.1088    0.0000 </r>
       <r>    2.2970    0.0000 </r>
       <r>    2.3674    0.0000 </r>
      </set>
      <set comment="kpoint 32">
       <r>  -17.5196    1.0000 </r>
       <r>  -17.1926    1.0000 </r>
       <r>  -17.0300    1.0000 </r>
       <r>  -16.6152    1.0000 </r>
       <r>  -16.4525    1.0000 </r>
       <r>  -16.3636    1.0000 </r>
       <r>  -16.2561    1.0000 </r>
       <r>  -16.2056    1.0000 </r>
       <r>  -16.1617    1.0000 </r>
       <r>  -16.0349    1.0000 </r>
       <r>  -15.9983    1.0000 </r>
       <r>  -15.8539    1.0000 </r>
       <r>  -15.7728    1.0000 </r>
       <r>  -15.7349    1.0000 </r>
       <r>  -15.5998    1.0000 </r>
       <r>  -15.5877    1.0000 </r>
       <r>  -15.4453    1.0000 </r>
       <r>  -15.2062    1.0000 </r>
       <r>   -9.6405    1.0000 </r>
       <r>   -9.5556    1.0000 </r>
       <r>   -9.4088    1.0000 </r>
       <r>   -8.9568    1.0000 </r>
       <r>   -8.7276    1.0000 </r>
       <r>   -8.6605    1.0000 </r>
       <r>   -8.5568    1.0000 </r>
       <r>   -8.4667    1.0000 </r>
       <r>   -8.4183    1.0000 </r>
       <r>   -8.3713    1.0000 </r>
       <r>   -8.2383    1.0000 </r>
       <r>   -8.1934    1.0000 </r>
       <r>   -8.1578    1.0000 </r>
       <r>   -8.0603    1.0000 </r>
       <r>   -8.0060    1.0000 </r>
       <r>   -7.9614    1.0000 </r>
       <r>   -7.8555    1.0000 </r>
       <r>   -7.7218    1.0000 </r>
       <r>   -7.5494    1.0000 </r>
       <r>   -7.4335    1.0000 </r>
       <r>   -7.3472    1.0000 </r>
       <r>   -7.2187    1.0000 </r>
       <r>   -7.1806    1.0000 </r>
       <r>   -7.0878    1.0000 </r>
       <r>   -7.0325    1.0000 </r>
       <r>   -6.8844    1.0000 </r>
       <r>   -6.8642    1.0000 </r>
       <r>   -6.7825    1.0000 </r>
       <r>   -6.6755    1.0000 </r>
       <r>   -6.6104    1.0000 </r>
       <r>   -6.5387    1.0000 </r>
       <r>   -6.4389    1.0000 </r>
       <r>   -6.4213    1.0000 </r>
       <r>   -6.3275    1.0000 </r>
       <r>   -6.2768    1.0000 </r>
       <r>   -6.1905    1.0000 </r>
       <r>   -6.1398    1.0000 </r>
       <r>   -6.0842    1.0000 </r>
       <r>   -5.9982    1.0000 </r>
       <r>   -5.9137    1.0000 </r>
       <r>   -5.8568    1.0000 </r>
       <r>   -5.7308    1.0000 </r>
       <r>   -5.6673    1.0000 </r>
       <r>   -5.6094    1.0000 </r>
       <r>   -5.5063    1.0000 </r>
       <r>   -5.4742    1.0000 </r>
       <r>   -5.2944    1.0000 </r>
       <r>   -5.2205    1.0000 </r>
       <r>   -5.1266    1.0000 </r>
       <r>   -4.9780    1.0000 </r>
       <r>   -4.8042    1.0000 </r>
       <r>   -4.6403    1.0000 </r>
       <r>   -4.6037    1.0000 </r>
       <r>   -4.4649    1.0000 </r>
       <r>   -4.3976    1.0000 </r>
       <r>   -4.2857    1.0000 </r>
       <r>   -4.1437    1.0000 </r>
       <r>   -4.0692    1.0000 </r>
       <r>   -3.8919    1.0000 </r>
       <r>   -3.6685    0.9976 </r>
       <r>   -3.4738    0.9255 </r>
       <r>   -3.0863    0.0972 </r>
       <r>   -2.9996    0.0280 </r>
       <r>   -2.9016    0.0046 </r>
       <r>   -2.7784    0.0003 </r>
       <r>   -2.6292    0.0000 </r>
       <r>   -2.5117    0.0000 </r>
       <r>   -2.4423    0.0000 </r>
       <r>   -2.2396    0.0000 </r>
       <r>   -2.1327    0.0000 </r>
       <r>   -2.0558    0.0000 </r>
       <r>   -1.9904    0.0000 </r>
       <r>   -1.8909    0.0000 </r>
       <r>   -1.7606    0.0000 </r>
       <r>   -1.4558    0.0000 </r>
       <r>   -1.3211    0.0000 </r>
       <r>   -1.2743    0.0000 </r>
       <r>   -1.1294    0.0000 </r>
       <r>   -1.0289    0.0000 </r>
       <r>   -1.0208    0.0000 </r>
       <r>   -0.9235    0.0000 </r>
       <r>   -0.8206    0.0000 </r>
       <r>   -0.7856    0.0000 </r>
       <r>   -0.7285    0.0000 </r>
       <r>   -0.6496    0.0000 </r>
       <r>   -0.5758    0.0000 </r>
       <r>   -0.4637    0.0000 </r>
       <r>   -0.3662    0.0000 </r>
       <r>   -0.2863    0.0000 </r>
       <r>   -0.1107    0.0000 </r>
       <r>    0.0278    0.0000 </r>
       <r>    0.1773    0.0000 </r>
       <r>    0.4532    0.0000 </r>
       <r>    0.4938    0.0000 </r>
       <r>    0.7889    0.0000 </r>
       <r>    0.8575    0.0000 </r>
       <r>    1.0782    0.0000 </r>
       <r>    1.1851    0.0000 </r>
       <r>    1.3723    0.0000 </r>
       <r>    2.0866    0.0000 </r>
       <r>    2.2653    0.0000 </r>
       <r>    2.5552    0.0000 </r>
      </set>
      <set comment="kpoint 33">
       <r>  -17.4926    1.0000 </r>
       <r>  -17.2886    1.0000 </r>
       <r>  -16.9081    1.0000 </r>
       <r>  -16.6084    1.0000 </r>
       <r>  -16.4952    1.0000 </r>
       <r>  -16.4531    1.0000 </r>
       <r>  -16.2623    1.0000 </r>
       <r>  -16.1918    1.0000 </r>
       <r>  -16.1402    1.0000 </r>
       <r>  -16.0669    1.0000 </r>
       <r>  -15.9252    1.0000 </r>
       <r>  -15.8438    1.0000 </r>
       <r>  -15.7742    1.0000 </r>
       <r>  -15.7094    1.0000 </r>
       <r>  -15.6097    1.0000 </r>
       <r>  -15.5903    1.0000 </r>
       <r>  -15.4452    1.0000 </r>
       <r>  -15.2246    1.0000 </r>
       <r>   -9.7215    1.0000 </r>
       <r>   -9.4445    1.0000 </r>
       <r>   -9.3507    1.0000 </r>
       <r>   -8.9181    1.0000 </r>
       <r>   -8.8183    1.0000 </r>
       <r>   -8.7536    1.0000 </r>
       <r>   -8.6482    1.0000 </r>
       <r>   -8.5706    1.0000 </r>
       <r>   -8.3914    1.0000 </r>
       <r>   -8.2955    1.0000 </r>
       <r>   -8.2360    1.0000 </r>
       <r>   -8.1808    1.0000 </r>
       <r>   -8.1028    1.0000 </r>
       <r>   -8.0395    1.0000 </r>
       <r>   -7.9729    1.0000 </r>
       <r>   -7.8960    1.0000 </r>
       <r>   -7.8122    1.0000 </r>
       <r>   -7.6928    1.0000 </r>
       <r>   -7.6013    1.0000 </r>
       <r>   -7.5407    1.0000 </r>
       <r>   -7.3597    1.0000 </r>
       <r>   -7.2816    1.0000 </r>
       <r>   -7.0978    1.0000 </r>
       <r>   -7.0504    1.0000 </r>
       <r>   -6.9526    1.0000 </r>
       <r>   -6.9236    1.0000 </r>
       <r>   -6.8438    1.0000 </r>
       <r>   -6.7904    1.0000 </r>
       <r>   -6.7011    1.0000 </r>
       <r>   -6.6068    1.0000 </r>
       <r>   -6.5715    1.0000 </r>
       <r>   -6.5012    1.0000 </r>
       <r>   -6.4206    1.0000 </r>
       <r>   -6.3410    1.0000 </r>
       <r>   -6.2264    1.0000 </r>
       <r>   -6.1665    1.0000 </r>
       <r>   -6.1107    1.0000 </r>
       <r>   -6.0376    1.0000 </r>
       <r>   -5.9806    1.0000 </r>
       <r>   -5.9601    1.0000 </r>
       <r>   -5.8700    1.0000 </r>
       <r>   -5.7823    1.0000 </r>
       <r>   -5.6781    1.0000 </r>
       <r>   -5.6193    1.0000 </r>
       <r>   -5.5426    1.0000 </r>
       <r>   -5.3810    1.0000 </r>
       <r>   -5.3313    1.0000 </r>
       <r>   -5.1807    1.0000 </r>
       <r>   -5.1208    1.0000 </r>
       <r>   -4.8999    1.0000 </r>
       <r>   -4.7613    1.0000 </r>
       <r>   -4.7036    1.0000 </r>
       <r>   -4.6233    1.0000 </r>
       <r>   -4.4997    1.0000 </r>
       <r>   -4.4278    1.0000 </r>
       <r>   -4.2209    1.0000 </r>
       <r>   -4.1680    1.0000 </r>
       <r>   -4.0667    1.0000 </r>
       <r>   -3.9179    1.0000 </r>
       <r>   -3.6831    0.9983 </r>
       <r>   -3.4545    0.9043 </r>
       <r>   -3.0691    0.0779 </r>
       <r>   -2.9965    0.0266 </r>
       <r>   -2.9373    0.0094 </r>
       <r>   -2.7674    0.0002 </r>
       <r>   -2.6353    0.0000 </r>
       <r>   -2.5434    0.0000 </r>
       <r>   -2.4325    0.0000 </r>
       <r>   -2.2895    0.0000 </r>
       <r>   -2.1389    0.0000 </r>
       <r>   -2.0678    0.0000 </r>
       <r>   -1.9803    0.0000 </r>
       <r>   -1.8656    0.0000 </r>
       <r>   -1.7824    0.0000 </r>
       <r>   -1.4305    0.0000 </r>
       <r>   -1.3026    0.0000 </r>
       <r>   -1.2289    0.0000 </r>
       <r>   -1.1429    0.0000 </r>
       <r>   -1.0716    0.0000 </r>
       <r>   -1.0134    0.0000 </r>
       <r>   -0.9250    0.0000 </r>
       <r>   -0.8257    0.0000 </r>
       <r>   -0.7807    0.0000 </r>
       <r>   -0.7154    0.0000 </r>
       <r>   -0.6440    0.0000 </r>
       <r>   -0.5632    0.0000 </r>
       <r>   -0.5066    0.0000 </r>
       <r>   -0.3941    0.0000 </r>
       <r>   -0.2332    0.0000 </r>
       <r>   -0.0718    0.0000 </r>
       <r>    0.0193    0.0000 </r>
       <r>    0.1723    0.0000 </r>
       <r>    0.3991    0.0000 </r>
       <r>    0.4562    0.0000 </r>
       <r>    0.7702    0.0000 </r>
       <r>    0.8672    0.0000 </r>
       <r>    1.0955    0.0000 </r>
       <r>    1.2482    0.0000 </r>
       <r>    1.4361    0.0000 </r>
       <r>    2.1248    0.0000 </r>
       <r>    2.2939    0.0000 </r>
       <r>    2.3928    0.0000 </r>
      </set>
      <set comment="kpoint 34">
       <r>  -17.4541    1.0000 </r>
       <r>  -17.3639    1.0000 </r>
       <r>  -16.7528    1.0000 </r>
       <r>  -16.6569    1.0000 </r>
       <r>  -16.6048    1.0000 </r>
       <r>  -16.4647    1.0000 </r>
       <r>  -16.2314    1.0000 </r>
       <r>  -16.2038    1.0000 </r>
       <r>  -16.1564    1.0000 </r>
       <r>  -16.0539    1.0000 </r>
       <r>  -15.8839    1.0000 </r>
       <r>  -15.8322    1.0000 </r>
       <r>  -15.7759    1.0000 </r>
       <r>  -15.6910    1.0000 </r>
       <r>  -15.6193    1.0000 </r>
       <r>  -15.6034    1.0000 </r>
       <r>  -15.4452    1.0000 </r>
       <r>  -15.2359    1.0000 </r>
       <r>   -9.7636    1.0000 </r>
       <r>   -9.3448    1.0000 </r>
       <r>   -9.2677    1.0000 </r>
       <r>   -8.9948    1.0000 </r>
       <r>   -8.8868    1.0000 </r>
       <r>   -8.8019    1.0000 </r>
       <r>   -8.6861    1.0000 </r>
       <r>   -8.6381    1.0000 </r>
       <r>   -8.3822    1.0000 </r>
       <r>   -8.2546    1.0000 </r>
       <r>   -8.2322    1.0000 </r>
       <r>   -8.1853    1.0000 </r>
       <r>   -8.0505    1.0000 </r>
       <r>   -8.0349    1.0000 </r>
       <r>   -7.9096    1.0000 </r>
       <r>   -7.8808    1.0000 </r>
       <r>   -7.7465    1.0000 </r>
       <r>   -7.7115    1.0000 </r>
       <r>   -7.6199    1.0000 </r>
       <r>   -7.5574    1.0000 </r>
       <r>   -7.3832    1.0000 </r>
       <r>   -7.3512    1.0000 </r>
       <r>   -7.0717    1.0000 </r>
       <r>   -7.0244    1.0000 </r>
       <r>   -6.9161    1.0000 </r>
       <r>   -6.8853    1.0000 </r>
       <r>   -6.8192    1.0000 </r>
       <r>   -6.7666    1.0000 </r>
       <r>   -6.7140    1.0000 </r>
       <r>   -6.6189    1.0000 </r>
       <r>   -6.5777    1.0000 </r>
       <r>   -6.5145    1.0000 </r>
       <r>   -6.4610    1.0000 </r>
       <r>   -6.3455    1.0000 </r>
       <r>   -6.3306    1.0000 </r>
       <r>   -6.1065    1.0000 </r>
       <r>   -6.0972    1.0000 </r>
       <r>   -6.0235    1.0000 </r>
       <r>   -5.9945    1.0000 </r>
       <r>   -5.9417    1.0000 </r>
       <r>   -5.8757    1.0000 </r>
       <r>   -5.8125    1.0000 </r>
       <r>   -5.7240    1.0000 </r>
       <r>   -5.6366    1.0000 </r>
       <r>   -5.5228    1.0000 </r>
       <r>   -5.4138    1.0000 </r>
       <r>   -5.3316    1.0000 </r>
       <r>   -5.1569    1.0000 </r>
       <r>   -5.0084    1.0000 </r>
       <r>   -4.8827    1.0000 </r>
       <r>   -4.8423    1.0000 </r>
       <r>   -4.6563    1.0000 </r>
       <r>   -4.5331    1.0000 </r>
       <r>   -4.5259    1.0000 </r>
       <r>   -4.4744    1.0000 </r>
       <r>   -4.2362    1.0000 </r>
       <r>   -4.1577    1.0000 </r>
       <r>   -4.0661    1.0000 </r>
       <r>   -3.9401    1.0000 </r>
       <r>   -3.6972    0.9987 </r>
       <r>   -3.4533    0.9028 </r>
       <r>   -3.0563    0.0655 </r>
       <r>   -3.0149    0.0358 </r>
       <r>   -2.9312    0.0083 </r>
       <r>   -2.7571    0.0001 </r>
       <r>   -2.6557    0.0000 </r>
       <r>   -2.5615    0.0000 </r>
       <r>   -2.4138    0.0000 </r>
       <r>   -2.3144    0.0000 </r>
       <r>   -2.1366    0.0000 </r>
       <r>   -2.0905    0.0000 </r>
       <r>   -1.9619    0.0000 </r>
       <r>   -1.8399    0.0000 </r>
       <r>   -1.7865    0.0000 </r>
       <r>   -1.4339    0.0000 </r>
       <r>   -1.2871    0.0000 </r>
       <r>   -1.2058    0.0000 </r>
       <r>   -1.1648    0.0000 </r>
       <r>   -1.0895    0.0000 </r>
       <r>   -1.0291    0.0000 </r>
       <r>   -0.9093    0.0000 </r>
       <r>   -0.8269    0.0000 </r>
       <r>   -0.7658    0.0000 </r>
       <r>   -0.6835    0.0000 </r>
       <r>   -0.6449    0.0000 </r>
       <r>   -0.5721    0.0000 </r>
       <r>   -0.5654    0.0000 </r>
       <r>   -0.4085    0.0000 </r>
       <r>   -0.2102    0.0000 </r>
       <r>   -0.0371    0.0000 </r>
       <r>    0.0137    0.0000 </r>
       <r>    0.1923    0.0000 </r>
       <r>    0.3571    0.0000 </r>
       <r>    0.4218    0.0000 </r>
       <r>    0.7875    0.0000 </r>
       <r>    0.8617    0.0000 </r>
       <r>    1.1185    0.0000 </r>
       <r>    1.2716    0.0000 </r>
       <r>    1.4752    0.0000 </r>
       <r>    2.2076    0.0000 </r>
       <r>    2.2465    0.0000 </r>
       <r>    2.3813    0.0000 </r>
      </set>
     </set>
    </set>
   </array>
  </eigenvalues>
  <separator name="orbital magnetization" >
   <v name="MAGDIPOLOUT">      0.00000000      0.00000000      0.00000000</v>
  </separator>
 </calculation>
 <structure name="finalpos" >
  <crystal>
   <varray name="basis" >
    <v>       8.33214166       4.82259496       0.00000000 </v>
    <v>      -8.35488231       4.86181236       0.00000000 </v>
    <v>       0.00000000       0.00000000      30.00000000 </v>
   </varray>
   <i name="volume">   2424.04567926 </i>
   <varray name="rec_basis" >
    <v>       0.06016981       0.10340006       0.00000000 </v>
    <v>      -0.05968446       0.10311862       0.00000000 </v>
    <v>       0.00000000       0.00000000       0.03333333 </v>
   </varray>
  </crystal>
  <varray name="positions" >
   <v>       0.66288785      -0.00141233       0.00253249 </v>
   <v>       0.69675706       0.34784413      -0.00087007 </v>
   <v>       0.31716304      -0.03102436      -0.00153360 </v>
   <v>       0.68859666       0.66548981      -0.00030654 </v>
   <v>      -0.00794923       0.66442097      -0.00002390 </v>
   <v>       1.01953827       0.36817650       0.00083881 </v>
   <v>      -0.01704924      -0.04006448      -0.00127339 </v>
   <v>       0.33469990       0.37041715       0.00155630 </v>
   <v>       0.30707797       0.65278510      -0.00039420 </v>
   <v>       0.10809685       0.21695601       0.95447911 </v>
   <v>       0.22287500       0.11126252       0.04449916 </v>
   <v>       0.10831555       0.56088282       0.94359183 </v>
   <v>       0.22213595       0.45524272       0.05810090 </v>
   <v>       0.11262394       0.88484554       0.94537657 </v>
   <v>       0.22175724       0.78107155       0.05326328 </v>
   <v>       0.44449549       0.22342513       0.95956265 </v>
   <v>       0.55398391       0.11083984       0.04570524 </v>
   <v>       0.44768681       0.56708590       0.94769958 </v>
   <v>       0.55843326       0.43959952       0.05032320 </v>
   <v>       0.44630448       0.89166737       0.94980715 </v>
   <v>       0.55425098       0.77631428       0.04646643 </v>
   <v>       0.78106663       0.22313392       0.95127750 </v>
   <v>       0.89324196       0.11211060       0.04522870 </v>
   <v>       0.77548991       0.54623734       0.94559154 </v>
   <v>       0.88454117       0.44287358       0.05451685 </v>
   <v>       0.77331332       0.88625209       0.94760640 </v>
   <v>       0.88787974       0.77178126       0.05637792 </v>
  </varray>
 </structure>
</modeling>
