unknown system                          
           1
     8.853264    5.105007    0.000000
    -8.854735    5.107538    0.000000
     0.000000    0.000000   30.000000
   V    Mo   W    S 
   3   3   3  18
Direct configuration=     1
   0.66666669  0.00000000  0.00000000
   0.66666669  0.33333334  0.00000000
   0.33333334  0.00000000  0.00000000
   0.66666669  0.66666669  0.00000000
   0.00000000  0.66666669  0.00000000
   1.00000000  0.33333334  0.00000000
   0.00000000  0.00000000  0.00000000
   0.33333334  0.33333334  0.00000000
   0.33333334  0.66666669  0.00000000
   0.11068511  0.22244981  0.95539999
   0.22244981  0.11068511  0.04460000
   0.11068511  0.55578315  0.95539999
   0.22244981  0.44401845  0.04460000
   0.11068511  0.88911647  0.95539999
   0.22244981  0.77735180  0.04460000
   0.44401845  0.22244981  0.95539999
   0.55578315  0.11068511  0.04460000
   0.44401845  0.55578315  0.95539999
   0.55578315  0.44401845  0.04460000
   0.44401845  0.88911647  0.95539999
   0.55578315  0.77735180  0.04460000
   0.77735180  0.22244981  0.95539999
   0.88911647  0.11068511  0.04460000
   0.77735180  0.55578315  0.95539999
   0.88911647  0.44401845  0.04460000
   0.77735180  0.88911647  0.95539999
   0.88911647  0.77735180  0.04460000
unknown system                          
           1
     8.665193    4.998717    0.000000
    -8.666749    5.001398    0.000000
     0.000000    0.000000   30.000000
   V    Mo   W    S 
   3   3   3  18
Direct configuration=     2
   0.66731427  0.00057346  0.00007773
   0.66855000  0.33462395  0.00002042
   0.33318153 -0.00059186  0.00004787
   0.66801259  0.66654330 -0.00015257
  -0.00157658  0.66511579 -0.00019074
   0.99985667  0.33475732  0.00010717
  -0.00168237 -0.00169099 -0.00023454
   0.33374059  0.33454559  0.00010553
   0.33207522  0.66576699  0.00021925
   0.11137783  0.22151993  0.95083191
   0.22423085  0.10918805  0.04798396
   0.11191694  0.55606357  0.95074701
   0.22298803  0.44483013  0.04939855
   0.11493271  0.89143185  0.95193165
   0.22488378  0.78166186  0.04803414
   0.44607635  0.22036233  0.95307935
   0.55558664  0.11080714  0.04582621
   0.44379315  0.55512690  0.95073009
   0.55681276  0.44138221  0.04798574
   0.44591283  0.89235900  0.95312740
   0.55659557  0.78163657  0.04798221
   0.77322818  0.22013954  0.95312164
   0.88481949  0.10852351  0.04805463
   0.77555377  0.55109742  0.95188582
   0.88433022  0.44205568  0.04809445
   0.77637239  0.89169857  0.95194635
   0.88933107  0.77868664  0.04923866
unknown system                          
           1
     8.483660    4.899305    0.000000
    -8.484326    4.900444    0.000000
     0.000000    0.000000   30.000000
   V    Mo   W    S 
   3   3   3  18
Direct configuration=     3
   0.66759953  0.00066723  0.00012539
   0.66914442  0.33512286  0.00001440
   0.33305104 -0.00078585  0.00004925
   0.66861420  0.66665891 -0.00012955
  -0.00209143  0.66471184 -0.00020776
   1.00049546  0.33557160  0.00008801
  -0.00230507 -0.00238929 -0.00025557
   0.33363836  0.33525684  0.00007874
   0.33138690  0.66483702  0.00025298
   0.11148735  0.22141889  0.95088876
   0.22413826  0.10929552  0.04790223
   0.11216405  0.55621581  0.95066938
   0.22322329  0.44494939  0.04950077
   0.11489457  0.89160476  0.95193726
   0.22505802  0.78162124  0.04800653
   0.44601239  0.22045972  0.95321653
   0.55559803  0.11083221  0.04571560
   0.44357895  0.55506159  0.95073791
   0.55662597  0.44120557  0.04797559
   0.44587975  0.89221031  0.95321811
   0.55643014  0.78162377  0.04790482
   0.77310863  0.22007036  0.95316391
   0.88484081  0.10835293  0.04801805
   0.77545825  0.55091502  0.95177499
   0.88415253  0.44194786  0.04817996
   0.77655556  0.89185835  0.95188353
   0.88947450  0.77891999  0.04929008
unknown system                          
           1
     8.268355    4.777716    0.000000
    -8.272441    4.784778    0.000000
     0.000000    0.000000   30.000000
   V    Mo   W    S 
   3   3   3  18
Direct configuration=     4
   0.66887615  0.00061886  0.00026319
   0.67134833  0.33736449 -0.00002028
   0.33200397 -0.00167111  0.00003001
   0.67118641  0.66736700 -0.00000184
  -0.00391163  0.66359134 -0.00018451
   1.00416732  0.33919578 -0.00000181
  -0.00453507 -0.00520330 -0.00021962
   0.33253668  0.33820388 -0.00005674
   0.32823359  0.66023101  0.00027509
   0.11149268  0.22133316  0.94953289
   0.22443692  0.10900804  0.04900574
   0.11233338  0.55652841  0.94875230
   0.22328417  0.44494067  0.05164875
   0.11590932  0.89211265  0.95049035
   0.22548795  0.78254996  0.04934176
   0.44656892  0.22009529  0.95244649
   0.55563619  0.11101711  0.04650079
   0.44364700  0.55536498  0.94916185
   0.55708912  0.44053618  0.04937702
   0.44647936  0.89306493  0.95226858
   0.55692917  0.78263949  0.04902351
   0.77200045  0.21948710  0.95203594
   0.88395135  0.10788701  0.04928709
   0.77469244  0.54936130  0.94987365
   0.88275922  0.44122509  0.04993688
   0.77588326  0.89236862  0.95013177
   0.88972781  0.77899650  0.05110105
unknown system                          
           1
     8.266099    4.782659    0.000000
    -8.271261    4.791593    0.000000
     0.000000    0.000000   30.000000
   V    Mo   W    S 
   3   3   3  18
Direct configuration=     5
   0.67106941  0.00026037  0.00036129
   0.67500325  0.34113535 -0.00010920
   0.33036604 -0.00322782 -0.00005467
   0.67730327  0.66954601  0.00013259
  -0.00738597  0.66230013 -0.00004923
   1.01296128  0.34713148 -0.00010174
  -0.00928536 -0.01204924 -0.00006774
   0.32948951  0.34427528 -0.00023117
   0.32131769  0.65040336  0.00016128
   0.11095515  0.22102779  0.94788382
   0.22448406  0.10900278  0.05018624
   0.11208156  0.55720510  0.94600859
   0.22273252  0.44470627  0.05518183
   0.11644970  0.89190172  0.94843386
   0.22530812  0.78276172  0.05104047
   0.44723460  0.22027919  0.95159681
   0.55591961  0.11155141  0.04777639
   0.44475897  0.55662420  0.94710108
   0.55765004  0.44005498  0.05107528
   0.44682111  0.89317575  0.95118373
   0.55704139  0.78307967  0.05030920
   0.77187658  0.21957104  0.95058077
   0.88355707  0.10829165  0.05077412
   0.77404693  0.54778517  0.94713362
   0.88166374  0.44054569  0.05228835
   0.77485433  0.89243026  0.94765876
   0.88993985  0.77844514  0.05374556
unknown system                          
           1
     8.266480    4.786217    0.000000
    -8.270714    4.793553    0.000000
     0.000000    0.000000   30.000000
   V    Mo   W    S 
   3   3   3  18
Direct configuration=     6
   0.67132070  0.00023349  0.00041208
   0.67582132  0.34160851 -0.00010077
   0.33048741 -0.00370119 -0.00002481
   0.67953732  0.67055741  0.00006138
  -0.00805079  0.66293123 -0.00005452
   1.01509206  0.34899452 -0.00007004
  -0.01065897 -0.01506960 -0.00002436
   0.32832661  0.34575625 -0.00013784
   0.31960338  0.64861853  0.00008328
   0.11030235  0.22057321  0.94800996
   0.22406975  0.10940124  0.04992492
   0.11166106  0.55769888  0.94568007
   0.22246016  0.44461176  0.05588202
   0.11570810  0.89137294  0.94828599
   0.22497314  0.78185955  0.05101185
   0.44682683  0.22117142  0.95181480
   0.55615081  0.11172252  0.04778577
   0.44562733  0.55749797  0.94700718
   0.55741567  0.44037123  0.05093171
   0.44626903  0.89191828  0.95131437
   0.55626358  0.78202358  0.05005206
   0.77325737  0.22037520  0.95065198
   0.88446423  0.10907058  0.05054261
   0.77422978  0.54808954  0.94690205
   0.88227040  0.44065707  0.05236792
   0.77485066  0.89197170  0.94744449
   0.88993512  0.77789862  0.05424573
unknown system                          
           1
     8.275562    4.795401    0.000000
    -8.281014    4.804847    0.000000
     0.000000    0.000000   30.000000
   V    Mo   W    S 
   3   3   3  18
Direct configuration=     7
   0.67159326  0.00035707  0.00053400
   0.67730380  0.34214334 -0.00013399
   0.33095465 -0.00463965 -0.00002965
   0.68329666  0.67214712  0.00002809
  -0.00921283  0.66401809 -0.00004082
   1.01831617  0.35245881 -0.00006355
  -0.01284710 -0.02013928  0.00005908
   0.32681407  0.34850215 -0.00015419
   0.31654222  0.64545045  0.00002123
   0.10942401  0.21973326  0.94838074
   0.22346258  0.10978193  0.04948329
   0.11107827  0.55828588  0.94534017
   0.22217290  0.44489919  0.05666278
   0.11500051  0.89082236  0.94807030
   0.22456966  0.78098936  0.05097364
   0.44620247  0.22218748  0.95231783
   0.55639491  0.11189493  0.04769963
   0.44649018  0.55835194  0.94707908
   0.55708841  0.44075795  0.05062985
   0.44566944  0.89057643  0.95150074
   0.55537337  0.78079143  0.04954616
   0.77485173  0.22123016  0.95083660
   0.88557671  0.10980078  0.05007366
   0.77444293  0.54831130  0.94663432
   0.88291800  0.44090413  0.05241091
   0.77490624  0.89145451  0.94718719
   0.88983124  0.77714332  0.05495279
unknown system                          
           1
     8.279807    4.802867    0.000000
    -8.286569    4.814583    0.000000
     0.000000    0.000000   30.000000
   V    Mo   W    S 
   3   3   3  18
Direct configuration=     8
   0.67169846  0.00049343  0.00062389
   0.67836476  0.34235635 -0.00016632
   0.33129800 -0.00552489 -0.00003887
   0.68539082  0.67290661  0.00000611
  -0.00983019  0.66475507 -0.00002795
   1.01969010  0.35437634 -0.00004664
  -0.01395075 -0.02309197  0.00008149
   0.32611679  0.35008537 -0.00011444
   0.31494326  0.64419429 -0.00002755
   0.10876658  0.21907904  0.94865832
   0.22313123  0.10992513  0.04917416
   0.11070226  0.55871487  0.94510472
   0.22196526  0.44508724  0.05710609
   0.11472955  0.89058594  0.94791361
   0.22439741  0.78066800  0.05098450
   0.44581409  0.22272867  0.95267832
   0.55651540  0.11195781  0.04764299
   0.44703313  0.55899548  0.94711537
   0.55689076  0.44089933  0.05042890
   0.44537563  0.88993908  0.95158442
   0.55490865  0.78012117  0.04920712
   0.77565661  0.22164957  0.95093068
   0.88624747  0.11013248  0.04974964
   0.77451557  0.54837250  0.94646793
   0.88319685  0.44104655  0.05246138
   0.77491795  0.89116481  0.94704848
   0.88972879  0.77659618  0.05545354
unknown system                          
           1
     8.285326    4.804919    0.000000
    -8.292452    4.817261    0.000000
     0.000000    0.000000   30.000000
   V    Mo   W    S 
   3   3   3  18
Direct configuration=     9
   0.67169679  0.00083049  0.00079228
   0.68016587  0.34252436 -0.00024716
   0.33168186 -0.00751683 -0.00007453
   0.68775960  0.67345128 -0.00001845
  -0.01039882  0.66578185 -0.00001215
   1.02067904  0.35675039 -0.00002821
  -0.01494048 -0.02671071  0.00008402
   0.32561051  0.35228342 -0.00006004
   0.31305605  0.64337760 -0.00008253
   0.10784950  0.21813667  0.94924941
   0.22274599  0.11004668  0.04860630
   0.11019118  0.55929918  0.94489928
   0.22167396  0.44555499  0.05744699
   0.11450908  0.89030543  0.94776372
   0.22422506  0.78055358  0.05098979
   0.44521623  0.22331604  0.95336049
   0.55661150  0.11198556  0.04750823
   0.44754980  0.55980032  0.94730567
   0.55658828  0.44095531  0.05006428
   0.44506455  0.88935449  0.95167848
   0.55438138  0.77930080  0.04863319
   0.77649456  0.22208067  0.95106634
   0.88721127  0.11041990  0.04919026
   0.77461964  0.54841285  0.94635468
   0.88343615  0.44133751  0.05249315
   0.77498664  0.89073499  0.94700680
   0.88954927  0.77584762  0.05602962
unknown system                          
           1
     8.290361    4.808570    0.000000
    -8.298316    4.822343    0.000000
     0.000000    0.000000   30.000000
   V    Mo   W    S 
   3   3   3  18
Direct configuration=    10
   0.67170851  0.00085978  0.00079428
   0.68019037  0.34248665 -0.00025208
   0.33161083 -0.00768291 -0.00008241
   0.68740338  0.67326228 -0.00001193
  -0.01028017  0.66565312 -0.00001275
   1.02028336  0.35647664 -0.00002301
  -0.01477445 -0.02629089  0.00007581
   0.32579852  0.35213677 -0.00004819
   0.31329278  0.64377544 -0.00007759
   0.10787492  0.21817204  0.94923506
   0.22281641  0.11003189  0.04863101
   0.11021419  0.55926528  0.94490581
   0.22166472  0.44558270  0.05738912
   0.11459421  0.89033071  0.94775274
   0.22423922  0.78064550  0.05103672
   0.44526544  0.22323745  0.95334837
   0.55661191  0.11197621  0.04752487
   0.44749492  0.55979216  0.94728462
   0.55661951  0.44089337  0.05009590
   0.44517083  0.88949303  0.95162626
   0.55446218  0.77940949  0.04866516
   0.77634688  0.22197955  0.95102709
   0.88714154  0.11037441  0.04922336
   0.77460292  0.54836999  0.94636170
   0.88336637  0.44133350  0.05251887
   0.77496006  0.89076206  0.94702999
   0.88953508  0.77588822  0.05598111
unknown system                          
           1
     8.293640    4.810581    0.000000
    -8.302049    4.825137    0.000000
     0.000000    0.000000   30.000000
   V    Mo   W    S 
   3   3   3  18
Direct configuration=    11
   0.67176368  0.00119107  0.00091173
   0.68150201  0.34255569 -0.00031666
   0.33164919 -0.00949148 -0.00012979
   0.68835926  0.67328467 -0.00001758
  -0.01041815  0.66606301 -0.00001080
   1.02038629  0.35768904 -0.00000990
  -0.01522411 -0.02804822  0.00006692
   0.32579118  0.35352095 -0.00000934
   0.31230950  0.64374868 -0.00010034
   0.10737609  0.21771583  0.94962255
   0.22271616  0.11012104  0.04828102
   0.10993116  0.55954046  0.94481801
   0.22146531  0.44599285  0.05746740
   0.11454006  0.89016096  0.94766465
   0.22411784  0.78069712  0.05113175
   0.44496305  0.22348075  0.95380568
   0.55669758  0.11197370  0.04745299
   0.44764888  0.56026029  0.94740002
   0.55648240  0.44081350  0.04990946
   0.44519302  0.88936884  0.95158790
   0.55425361  0.77907002  0.04833381
   0.77661736  0.22206852  0.95104243
   0.88765289  0.11050101  0.04891308
   0.77466359  0.54834935  0.94632812
   0.88340923  0.44154415  0.05258267
   0.77496795  0.89050822  0.94707721
   0.88939943  0.77553441  0.05619692
unknown system                          
           1
     8.301904    4.815024    0.000000
    -8.311991    4.832471    0.000000
     0.000000    0.000000   30.000000
   V    Mo   W    S 
   3   3   3  18
Direct configuration=    12
   0.67179327  0.00132063  0.00095621
   0.68197993  0.34259962 -0.00033991
   0.33161200 -0.01018185 -0.00014845
   0.68861719  0.67323280 -0.00001784
  -0.01044852  0.66617151 -0.00000814
   1.02034670  0.35804746 -0.00000298
  -0.01532960 -0.02856021  0.00006035
   0.32582318  0.35397621  0.00000764
   0.31201677  0.64383467 -0.00010890
   0.10720881  0.21757080  0.94974863
   0.22270202  0.11015978  0.04816161
   0.10982908  0.55963497  0.94477363
   0.22138819  0.44613611  0.05750620
   0.11453112  0.89010196  0.94762570
   0.22407420  0.78071404  0.05118035
   0.44485993  0.22355213  0.95396661
   0.55672122  0.11197549  0.04743150
   0.44770086  0.56044377  0.94742315
   0.55644103  0.44077240  0.04985628
   0.44520996  0.88933057  0.95156001
   0.55418118  0.77895522  0.04822881
   0.77670751  0.22209990  0.95103435
   0.88783795  0.11055896  0.04882033
   0.77467965  0.54832912  0.94630815
   0.88342388  0.44161481  0.05261695
   0.77495657  0.89041952  0.94708480
   0.88935036  0.77540409  0.05627488
unknown system                          
           1
     8.313762    4.821281    0.000000
    -8.326510    4.843314    0.000000
     0.000000    0.000000   30.000000
   V    Mo   W    S 
   3   3   3  18
Direct configuration=    13
   0.67197177  0.00188323  0.00113399
   0.68391319  0.34285454 -0.00043168
   0.33137673 -0.01292385 -0.00022941
   0.68944074  0.67290183 -0.00001960
  -0.01061428  0.66640453 -0.00000236
   1.02013682  0.35937152  0.00002092
  -0.01572579 -0.03038680  0.00002805
   0.32602178  0.35577886  0.00006919
   0.31092622  0.64415552 -0.00013504
   0.10663320  0.21709756  0.95025730
   0.22268958  0.11032637  0.04768351
   0.10946078  0.55994566  0.94464123
   0.22110702  0.44674355  0.05759025
   0.11447002  0.88986378  0.94749912
   0.22390992  0.78078883  0.05138115
   0.44450084  0.22380528  0.95461898
   0.55682961  0.11198517  0.04732925
   0.44780387  0.56112231  0.94753103
   0.55630614  0.44057633  0.04964947
   0.44531288  0.88923337  0.95143923
   0.55393438  0.77854834  0.04781577
   0.77698748  0.22221599  0.95100000
   0.88854481  0.11077013  0.04847177
   0.77474495  0.54825191  0.94626327
   0.88344218  0.44188171  0.05274388
   0.77492943  0.89005628  0.94715715
   0.88916020  0.77496247  0.05649350
unknown system                          
           1
     8.327320    4.824631    0.000000
    -8.344891    4.854961    0.000000
     0.000000    0.000000   30.000000
   V    Mo   W    S 
   3   3   3  18
Direct configuration=    14
   0.67237655  0.00308339  0.00146822
   0.68747483  0.34337706 -0.00060093
   0.33034777 -0.01841924 -0.00040638
   0.69047532  0.67198385 -0.00001542
  -0.01045053  0.66680104  0.00001593
   1.01939099  0.36150266  0.00006503
  -0.01612821 -0.03326103 -0.00005469
   0.32666834  0.35900925  0.00019546
   0.30903783  0.64523984 -0.00017545
   0.10570259  0.21640933  0.95114174
   0.22285948  0.11063345  0.04681590
   0.10879722  0.56043420  0.94439489
   0.22060705  0.44789745  0.05770966
   0.11442937  0.88943057  0.94728622
   0.22359258  0.78093241  0.05180152
   0.44382850  0.22400553  0.95583182
   0.55691575  0.11194004  0.04712523
   0.44784108  0.56237470  0.94765702
   0.55610855  0.44015516  0.04937331
   0.44562712  0.88918293  0.95116838
   0.55357393  0.77795369  0.04710602
   0.77738230  0.22227686  0.95084712
   0.88978751  0.11114831  0.04793424
   0.77482972  0.54805649  0.94614744
   0.88352534  0.44240188  0.05305693
   0.77477458  0.88943047  0.94731193
   0.88883889  0.77423418  0.05679874
unknown system                          
           1
     8.320948    4.819248    0.000000
    -8.338751    4.849967    0.000000
     0.000000    0.000000   30.000000
   V    Mo   W    S 
   3   3   3  18
Direct configuration=    15
   0.67322378  0.00485740  0.00189533
   0.69148383  0.34425357 -0.00078692
   0.32834006 -0.02435498 -0.00065810
   0.69101570  0.67040373 -0.00001637
  -0.01007998  0.66669268  0.00003956
   1.01813985  0.36346741  0.00016328
  -0.01631569 -0.03583099 -0.00019133
   0.32774931  0.36251137  0.00034271
   0.30704139  0.64678335 -0.00020709
   0.10485374  0.21581233  0.95217863
   0.22324253  0.11094021  0.04582377
   0.10802181  0.56090555  0.94407794
   0.22001280  0.44943428  0.05778028
   0.11450600  0.88885010  0.94697137
   0.22317479  0.78093011  0.05242580
   0.44321608  0.22387835  0.95729914
   0.55685294  0.11184504  0.04681506
   0.44770300  0.56395347  0.94774838
   0.55606033  0.43961902  0.04916547
   0.44609401  0.88911043  0.95078432
   0.55325240  0.77740100  0.04628090
   0.77778041  0.22230052  0.95058330
   0.89123438  0.11158605  0.04741003
   0.77496805  0.54777693  0.94602232
   0.88365412  0.44299253  0.05347502
   0.77454064  0.88868596  0.94754994
   0.88844817  0.77340902  0.05702716
unknown system                          
           1
     8.335149    4.824716    0.000000
    -8.357206    4.862761    0.000000
     0.000000    0.000000   30.000000
   V    Mo   W    S 
   3   3   3  18
Direct configuration=    16
   0.67391547  0.00592387  0.00190918
   0.69099159  0.34479051 -0.00074679
   0.32685095 -0.02332981 -0.00079962
   0.69011468  0.66945422 -0.00001333
  -0.00950654  0.66601301  0.00009065
   1.01768324  0.36282095  0.00015515
  -0.01585319 -0.03529902 -0.00031266
   0.32822018  0.36239695  0.00044531
   0.30699882  0.64710729 -0.00019426
   0.10526141  0.21610019  0.95229668
   0.22344945  0.11085343  0.04584644
   0.10792161  0.56058303  0.94408444
   0.22010136  0.44978337  0.05765941
   0.11446223  0.88854297  0.94689817
   0.22303586  0.78053426  0.05253005
   0.44363878  0.22330846  0.95741083
   0.55661624  0.11177720  0.04664933
   0.44743577  0.56419194  0.94768809
   0.55634538  0.43959526  0.04936212
   0.44613124  0.88906430  0.95082210
   0.55342288  0.77763846  0.04616640
   0.77777278  0.22219734  0.95046185
   0.89154074  0.11162274  0.04758685
   0.77499994  0.54758936  0.94597683
   0.88376761  0.44297959  0.05358195
   0.77444748  0.88857476  0.94767281
   0.88844850  0.77339981  0.05677192
unknown system                          
           1
     8.332559    4.821536    0.000000
    -8.355186    4.860552    0.000000
     0.000000    0.000000   30.000000
   V    Mo   W    S 
   3   3   3  18
Direct configuration=    17
   0.67483922  0.00795178  0.00226096
   0.69466581  0.34575812 -0.00089171
   0.32478529 -0.02895420 -0.00104714
   0.69059319  0.66789492 -0.00004112
  -0.00902795  0.66601688  0.00011805
   1.01645727  0.36456736  0.00024975
  -0.01611510 -0.03788307 -0.00044232
   0.32944778  0.36586743  0.00059842
   0.30508122  0.64847555 -0.00023602
   0.10455373  0.21550796  0.95321496
   0.22377688  0.11114681  0.04499631
   0.10719558  0.56091155  0.94378554
   0.21961185  0.45111836  0.05774882
   0.11442889  0.88790432  0.94657480
   0.22270350  0.78063845  0.05305999
   0.44309934  0.22322809  0.95869712
   0.55653355  0.11173236  0.04636899
   0.44727776  0.56551343  0.94777653
   0.55630125  0.43910294  0.04923154
   0.44646455  0.88908576  0.95055111
   0.55312657  0.77716926  0.04539933
   0.77810266  0.22222916  0.95021911
   0.89295970  0.11197177  0.04715600
   0.77512685  0.54729429  0.94583867
   0.88385523  0.44342722  0.05396374
   0.77423656  0.88787169  0.94788081
   0.88813328  0.77266626  0.05696767
unknown system                          
           1
     8.333867    4.821518    0.000000
    -8.357009    4.861418    0.000000
     0.000000    0.000000   30.000000
   V    Mo   W    S 
   3   3   3  18
Direct configuration=    18
   0.67540523  0.00900331  0.00227487
   0.69430167  0.34604702 -0.00084845
   0.32417824 -0.02847363 -0.00109377
   0.69022364  0.66741721 -0.00005158
  -0.00876853  0.66579456  0.00012577
   1.01623974  0.36411153  0.00027168
  -0.01602492 -0.03773760 -0.00049169
   0.32970553  0.36579076  0.00064910
   0.30508412  0.64849424 -0.00022344
   0.10490047  0.21562858  0.95325577
   0.22374708  0.11109366  0.04505121
   0.10712508  0.56067974  0.94376814
   0.21965664  0.45119305  0.05772542
   0.11426765  0.88761715  0.94649158
   0.22263547  0.78055541  0.05305203
   0.44330592  0.22308067  0.95865563
   0.55642315  0.11175033  0.04631343
   0.44718748  0.56551119  0.94775466
   0.55642085  0.43914605  0.04936668
   0.44639010  0.88911541  0.95063432
   0.55321595  0.77737470  0.04529390
   0.77806972  0.22220703  0.95017927
   0.89309280  0.11186393  0.04724555
   0.77519988  0.54719604  0.94580537
   0.88389627  0.44335405  0.05399518
   0.77421501  0.88780353  0.94792135
   0.88812023  0.77259654  0.05687792
unknown system                          
           1
     8.333358    4.822502    0.000000
    -8.355752    4.861121    0.000000
     0.000000    0.000000   30.000000
   V    Mo   W    S 
   3   3   3  18
Direct configuration=    19
   0.67586476  0.00991478  0.00231495
   0.69461241  0.34633809 -0.00084337
   0.32359994 -0.02897380 -0.00115485
   0.69010740  0.66694735 -0.00006140
  -0.00859364  0.66568166  0.00012748
   1.01594333  0.36411372  0.00028524
  -0.01600980 -0.03804104 -0.00054037
   0.33002387  0.36622126  0.00070304
   0.30481044  0.64864010 -0.00022604
   0.10497074  0.21558345  0.95339246
   0.22376533  0.11110471  0.04497068
   0.10699282  0.56056732  0.94373188
   0.21962621  0.45139436  0.05772940
   0.11415782  0.88738025  0.94641200
   0.22255571  0.78052790  0.05311847
   0.44332795  0.22300972  0.95879607
   0.55635428  0.11178713  0.04626229
   0.44712293  0.56567193  0.94775307
   0.55647803  0.43910487  0.04942460
   0.44640087  0.88913364  0.95064597
   0.55323037  0.77743962  0.04512807
   0.77808688  0.22221364  0.95012534
   0.89336930  0.11185279  0.04725175
   0.77525352  0.54709655  0.94576702
   0.88392582  0.44336856  0.05405913
   0.77416249  0.88767692  0.94796926
   0.88807467  0.77245898  0.05685778
unknown system                          
           1
     8.326172    4.825054    0.000000
    -8.346119    4.859498    0.000000
     0.000000    0.000000   30.000000
   V    Mo   W    S 
   3   3   3  18
Direct configuration=    20
   0.67530816  0.00878043  0.00227830
   0.69441231  0.34599554 -0.00085972
   0.32425256 -0.02850217 -0.00109096
   0.69029469  0.66751070 -0.00004968
  -0.00881601  0.66576009  0.00012541
   1.01621032  0.36421896  0.00026492
  -0.01603404 -0.03774635 -0.00048834
   0.32967087  0.36582211  0.00064382
   0.30505076  0.64852025 -0.00023084
   0.10483958  0.21561473  0.95326592
   0.22375923  0.11110255  0.04503950
   0.10711789  0.56072321  0.94376682
   0.21964422  0.45122694  0.05772787
   0.11427896  0.88764283  0.94649613
   0.22261469  0.78052907  0.05307471
   0.44331501  0.22309532  0.95867986
   0.55647494  0.11173009  0.04630355
   0.44719831  0.56556672  0.94775300
   0.55641676  0.43912839  0.04934882
   0.44643294  0.88910372  0.95061269
   0.55319694  0.77734521  0.04530659
   0.77807701  0.22217906  0.95019124
   0.89307493  0.11188640  0.04721751
   0.77519176  0.54719158  0.94581100
   0.88388934  0.44336771  0.05399963
   0.77422285  0.88781372  0.94792088
   0.88811945  0.77260763  0.05689126
unknown system                          
           1
     8.324490    4.826678    0.000000
    -8.343389    4.859332    0.000000
     0.000000    0.000000   30.000000
   V    Mo   W    S 
   3   3   3  18
Direct configuration=    21
   0.67394310  0.00579842  0.00215272
   0.69382273  0.34515941 -0.00088797
   0.32568478 -0.02711178 -0.00093314
   0.69066324  0.66892048 -0.00003094
  -0.00920952  0.66585494  0.00012552
   1.01688907  0.36444847  0.00022897
  -0.01612445 -0.03701369 -0.00037190
   0.32900049  0.36500881  0.00051045
   0.30555538  0.64817078 -0.00024376
   0.10459803  0.21577641  0.95294484
   0.22380402  0.11115075  0.04527023
   0.10739673  0.56109926  0.94384671
   0.21971531  0.45082130  0.05768581
   0.11445728  0.88819910  0.94671187
   0.22276996  0.78054530  0.05294783
   0.44337677  0.22332210  0.95835264
   0.55684457  0.11147250  0.04638315
   0.44729026  0.56525810  0.94775744
   0.55624598  0.43915770  0.04919364
   0.44656173  0.88912249  0.95056759
   0.55309633  0.77716736  0.04577528
   0.77801042  0.22193011  0.95036937
   0.89230279  0.11194825  0.04713044
   0.77505944  0.54743551  0.94592979
   0.88379312  0.44333859  0.05386787
   0.77437827  0.88819732  0.94779057
   0.88828862  0.77303647  0.05692490
unknown system                          
           1
     8.330046    4.825646    0.000000
    -8.350305    4.860618    0.000000
     0.000000    0.000000   30.000000
   V    Mo   W    S 
   3   3   3  18
Direct configuration=    22
   0.67254661  0.00283995  0.00208495
   0.69356993  0.34443264 -0.00093348
   0.32683589 -0.02642043 -0.00080201
   0.69103648  0.67015406  0.00000890
  -0.00949166  0.66600816  0.00013277
   1.01754420  0.36487870  0.00020360
  -0.01619234 -0.03652069 -0.00026408
   0.32836436  0.36443850  0.00039567
   0.30593284  0.64815291 -0.00025702
   0.10434198  0.21591700  0.95276858
   0.22388100  0.11123819  0.04535765
   0.10757773  0.56153342  0.94387098
   0.21968307  0.45061815  0.05766941
   0.11470230  0.88867971  0.94688075
   0.22288023  0.78060695  0.05287784
   0.44337191  0.22349516  0.95820764
   0.55711870  0.11120784  0.04642878
   0.44741562  0.56519111  0.94776384
   0.55608700  0.43915045  0.04900308
   0.44664227  0.88911004  0.95047505
   0.55291200  0.77681554  0.04616053
   0.77807531  0.22173914  0.95050069
   0.89180596  0.11213137  0.04698241
   0.77495216  0.54764685  0.94602731
   0.88371211  0.44338718  0.05380141
   0.77452695  0.88844143  0.94766161
   0.88838185  0.77334111  0.05699305
unknown system                          
           1
     8.328282    4.828351    0.000000
    -8.347501    4.861560    0.000000
     0.000000    0.000000   30.000000
   V    Mo   W    S 
   3   3   3  18
Direct configuration=    23
   0.67320300  0.00439071  0.00216085
   0.69439231  0.34529977 -0.00092965
   0.32547013 -0.02753271 -0.00093130
   0.69067086  0.66889914 -0.00002993
  -0.00925498  0.66556819  0.00013828
   1.01694899  0.36501477  0.00024748
  -0.01615823 -0.03722684 -0.00037125
   0.32902349  0.36540880  0.00052430
   0.30549180  0.64861870 -0.00029082
   0.10462178  0.21587626  0.95308214
   0.22390414  0.11130198  0.04514901
   0.10730272  0.56132127  0.94378424
   0.21966511  0.45116110  0.05769500
   0.11447661  0.88813034  0.94667895
   0.22266473  0.78059047  0.05302940
   0.44348961  0.22339505  0.95854079
   0.55685788  0.11132242  0.04632840
   0.44729316  0.56561011  0.94778150
   0.55624969  0.43903282  0.04911618
   0.44653597  0.88915533  0.95045121
   0.55292090  0.77672354  0.04586917
   0.77826562  0.22194536  0.95040731
   0.89263082  0.11227834  0.04697720
   0.77506907  0.54746138  0.94597768
   0.88374180  0.44340235  0.05392445
   0.77446605  0.88805830  0.94772846
   0.88827143  0.77300749  0.05696086
unknown system                          
           1
     8.329283    4.829596    0.000000
    -8.348505    4.862817    0.000000
     0.000000    0.000000   30.000000
   V    Mo   W    S 
   3   3   3  18
Direct configuration=    24
   0.67046294 -0.00094369  0.00211969
   0.69471845  0.34464153 -0.00102879
   0.32627731 -0.02711937 -0.00079250
   0.69104980  0.67035962  0.00002899
  -0.00956363  0.66539487  0.00018016
   1.01777505  0.36618702  0.00024975
  -0.01629771 -0.03692649 -0.00029021
   0.32852486  0.36537561  0.00044535
   0.30585206  0.64922775 -0.00034073
   0.10444619  0.21617326  0.95304632
   0.22406699  0.11155591  0.04513418
   0.10740935  0.56201096  0.94372992
   0.21970003  0.45149420  0.05767615
   0.11464078  0.88850178  0.94682099
   0.22266827  0.78072367  0.05302731
   0.44374278  0.22372755  0.95857929
   0.55720421  0.11078411  0.04625641
   0.44745155  0.56598466  0.94780164
   0.55615252  0.43885244  0.04887750
   0.44654460  0.88933147  0.95021064