<?xml version="1.0" encoding="ISO-8859-1"?>
<modeling>
 <generator>
  <i name="program" type="string">vasp </i>
  <i name="version" type="string">5.4.1  </i>
  <i name="subversion" type="string">05Feb16 (build Jul 05 2020 17:13:04) complex                          parallel </i>
  <i name="platform" type="string">IFC91_ompi </i>
  <i name="date" type="string">2024 04 25 </i>
  <i name="time" type="string">13:33:21 </i>
 </generator>
 <incar>
  <i type="int" name="ISTART">     0</i>
  <i type="string" name="PREC">normal</i>
  <i type="string" name="ALGO"> Normal</i>
  <i type="int" name="ISPIN">     1</i>
  <i type="int" name="ICHARG">     2</i>
  <i type="int" name="IBRION">     1</i>
  <i type="int" name="NSW">   100</i>
  <i type="int" name="ISIF">     3</i>
  <i type="int" name="ISYM">     0</i>
  <i name="SYMPREC">      0.00000001</i>
  <i name="POTIM">      0.50000000</i>
  <i type="logical" name="LREAL"> F  </i>
  <i type="logical" name="LPLANE"> F  </i>
  <i type="int" name="ISMEAR">     0</i>
  <i type="logical" name="LWAVE"> F  </i>
  <i type="logical" name="LCHARG"> F  </i>
  <v type="int" name="KPOINT_BSE">    -1     0     0     0</v>
 </incar>
 <kpoints>
  <generation param="Gamma">
   <v type="int" name="divisions">       8        8        1 </v>
   <v name="usershift">      0.00000000       0.00000000       0.00000000 </v>
   <v name="genvec1">      0.12500000       0.00000000       0.00000000 </v>
   <v name="genvec2">     -0.00000000       0.12500000       0.00000000 </v>
   <v name="genvec3">      0.00000000       0.00000000       1.00000000 </v>
   <v name="shift">      0.00000000       0.00000000       0.00000000 </v>
  </generation>
  <varray name="kpointlist" >
   <v>       0.00000000       0.00000000       0.00000000 </v>
   <v>       0.12500000       0.00000000       0.00000000 </v>
   <v>       0.25000000       0.00000000       0.00000000 </v>
   <v>       0.37500000       0.00000000       0.00000000 </v>
   <v>       0.50000000       0.00000000       0.00000000 </v>
   <v>       0.00000000       0.12500000       0.00000000 </v>
   <v>       0.12500000       0.12500000       0.00000000 </v>
   <v>       0.25000000       0.12500000       0.00000000 </v>
   <v>       0.37500000       0.12500000       0.00000000 </v>
   <v>       0.50000000       0.12500000       0.00000000 </v>
   <v>      -0.37500000       0.12500000       0.00000000 </v>
   <v>      -0.25000000       0.12500000       0.00000000 </v>
   <v>      -0.12500000       0.12500000       0.00000000 </v>
   <v>       0.00000000       0.25000000       0.00000000 </v>
   <v>       0.12500000       0.25000000       0.00000000 </v>
   <v>       0.25000000       0.25000000       0.00000000 </v>
   <v>       0.37500000       0.25000000       0.00000000 </v>
   <v>       0.50000000       0.25000000       0.00000000 </v>
   <v>      -0.37500000       0.25000000       0.00000000 </v>
   <v>      -0.25000000       0.25000000       0.00000000 </v>
   <v>      -0.12500000       0.25000000       0.00000000 </v>
   <v>      -0.00000000       0.37500000       0.00000000 </v>
   <v>       0.12500000       0.37500000       0.00000000 </v>
   <v>       0.25000000       0.37500000       0.00000000 </v>
   <v>       0.37500000       0.37500000       0.00000000 </v>
   <v>       0.50000000       0.37500000       0.00000000 </v>
   <v>      -0.37500000       0.37500000       0.00000000 </v>
   <v>      -0.25000000       0.37500000       0.00000000 </v>
   <v>      -0.12500000       0.37500000       0.00000000 </v>
   <v>       0.00000000       0.50000000       0.00000000 </v>
   <v>       0.12500000       0.50000000       0.00000000 </v>
   <v>       0.25000000       0.50000000       0.00000000 </v>
   <v>       0.37500000       0.50000000       0.00000000 </v>
   <v>       0.50000000       0.50000000       0.00000000 </v>
  </varray>
  <varray name="weights" >
   <v>       0.01562500 </v>
   <v>       0.03125000 </v>
   <v>       0.03125000 </v>
   <v>       0.03125000 </v>
   <v>       0.01562500 </v>
   <v>       0.03125000 </v>
   <v>       0.03125000 </v>
   <v>       0.03125000 </v>
   <v>       0.03125000 </v>
   <v>       0.03125000 </v>
   <v>       0.03125000 </v>
   <v>       0.03125000 </v>
   <v>       0.03125000 </v>
   <v>       0.03125000 </v>
   <v>       0.03125000 </v>
   <v>       0.03125000 </v>
   <v>       0.03125000 </v>
   <v>       0.03125000 </v>
   <v>       0.03125000 </v>
   <v>       0.03125000 </v>
   <v>       0.03125000 </v>
   <v>       0.03125000 </v>
   <v>       0.03125000 </v>
   <v>       0.03125000 </v>
   <v>       0.03125000 </v>
   <v>       0.03125000 </v>
   <v>       0.03125000 </v>
   <v>       0.03125000 </v>
   <v>       0.03125000 </v>
   <v>       0.01562500 </v>
   <v>       0.03125000 </v>
   <v>       0.03125000 </v>
   <v>       0.03125000 </v>
   <v>       0.01562500 </v>
  </varray>
 </kpoints>
 <parameters>
  <separator name="general" >
   <i type="string" name="SYSTEM">unknown system</i>
   <i type="logical" name="LCOMPAT"> F  </i>
  </separator>
  <separator name="electronic" >
   <i type="string" name="PREC">normal</i>
   <i name="ENMAX">    280.00000000</i>
   <i name="ENAUG">    373.43800000</i>
   <i name="EDIFF">      0.00010000</i>
   <i type="int" name="IALGO">    38</i>
   <i type="int" name="IWAVPR">    11</i>
   <i type="int" name="NBANDS">   120</i>
   <i name="NELECT">    159.00000000</i>
   <i type="int" name="TURBO">     0</i>
   <i type="int" name="IRESTART">     0</i>
   <i type="int" name="NREBOOT">     0</i>
   <i type="int" name="NMIN">     0</i>
   <i name="EREF">      0.00000000</i>
   <separator name="electronic smearing" >
    <i type="int" name="ISMEAR">     0</i>
    <i name="SIGMA">      0.20000000</i>
    <i name="KSPACING">      0.50000000</i>
    <i type="logical" name="KGAMMA"> T  </i>
   </separator>
   <separator name="electronic projectors" >
    <i type="logical" name="LREAL"> F  </i>
    <v name="ROPT">      0.00000000      0.00000000      0.00000000      0.00000000</v>
    <i type="int" name="LMAXPAW">  -100</i>
    <i type="int" name="LMAXMIX">     2</i>
    <i type="logical" name="NLSPLINE"> F  </i>
   </separator>
   <separator name="electronic startup" >
    <i type="int" name="ISTART">     0</i>
    <i type="int" name="ICHARG">     2</i>
    <i type="int" name="INIWAV">     1</i>
   </separator>
   <separator name="electronic spin" >
    <i type="int" name="ISPIN">     1</i>
    <i type="logical" name="LNONCOLLINEAR"> F  </i>
    <v name="MAGMOM">      1.00000000      1.00000000      1.00000000      1.00000000      1.00000000      1.00000000      1.00000000      1.00000000      1.00000000      1.00000000      1.00000000      1.00000000      1.00000000      1.00000000      1.00000000      1.00000000      1.00000000      1.00000000      1.00000000      1.00000000
      1.00000000      1.00000000      1.00000000      1.00000000      1.00000000      1.00000000      1.00000000</v>
    <i name="NUPDOWN">     -1.00000000</i>
    <i type="logical" name="LSORBIT"> F  </i>
    <v name="SAXIS">      0.00000000      0.00000000      1.00000000</v>
    <i type="logical" name="LSPIRAL"> F  </i>
    <v name="QSPIRAL">      0.00000000      0.00000000      0.00000000</v>
    <i type="logical" name="LZEROZ"> F  </i>
   </separator>
   <separator name="electronic exchange-correlation" >
    <i type="logical" name="LASPH"> F  </i>
    <i type="logical" name="LMETAGGA"> F  </i>
   </separator>
   <separator name="electronic convergence" >
    <i type="int" name="NELM">    60</i>
    <i type="int" name="NELMDL">    -5</i>
    <i type="int" name="NELMIN">     2</i>
    <i name="ENINI">    280.00000000</i>
    <separator name="electronic convergence detail" >
     <i type="logical" name="LDIAG"> T  </i>
     <i type="logical" name="LSUBROT"> F  </i>
     <i name="WEIMIN">      0.00100000</i>
     <i name="EBREAK">      0.00000021</i>
     <i name="DEPER">      0.30000000</i>
     <i type="int" name="NRMM">     4</i>
     <i name="TIME">      0.40000000</i>
    </separator>
   </separator>
   <separator name="electronic mixer" >
    <i name="AMIX">      0.40000000</i>
    <i name="BMIX">      1.00000000</i>
    <i name="AMIN">      0.10000000</i>
    <i name="AMIX_MAG">      1.60000000</i>
    <i name="BMIX_MAG">      1.00000000</i>
    <separator name="electronic mixer details" >
     <i type="int" name="IMIX">     4</i>
     <i type="logical" name="MIXFIRST"> F  </i>
     <i type="int" name="MAXMIX">   -45</i>
     <i name="WC">    100.00000000</i>
     <i type="int" name="INIMIX">     1</i>
     <i type="int" name="MIXPRE">     1</i>
     <i type="int" name="MREMOVE">     5</i>
    </separator>
   </separator>
   <separator name="electronic dipolcorrection" >
    <i type="logical" name="LDIPOL"> F  </i>
    <i type="logical" name="LMONO"> F  </i>
    <i type="int" name="IDIPOL">     0</i>
    <i name="EPSILON">      1.00000000</i>
    <v name="DIPOL">   -100.00000000   -100.00000000   -100.00000000</v>
    <i name="EFIELD">      0.00000000</i>
   </separator>
  </separator>
  <separator name="grids" >
   <i type="int" name="NGX">    42</i>
   <i type="int" name="NGY">    42</i>
   <i type="int" name="NGZ">   126</i>
   <i type="int" name="NGXF">    84</i>
   <i type="int" name="NGYF">    84</i>
   <i type="int" name="NGZF">   252</i>
   <i type="logical" name="ADDGRID"> F  </i>
  </separator>
  <separator name="ionic" >
   <i type="int" name="NSW">   100</i>
   <i type="int" name="IBRION">     1</i>
   <i type="int" name="ISIF">     3</i>
   <i name="PSTRESS">      0.00000000</i>
   <i name="EDIFFG">      0.00100000</i>
   <i type="int" name="NFREE">     0</i>
   <i name="POTIM">      0.50000000</i>
   <i name="SMASS">     -3.00000000</i>
   <i name="SCALEE">      1.00000000</i>
  </separator>
  <separator name="ionic md" >
   <i name="TEBEG">      0.00010000</i>
   <i name="TEEND">      0.00010000</i>
   <i type="int" name="NBLOCK">     1</i>
   <i type="int" name="KBLOCK">   100</i>
   <i type="int" name="NPACO">   256</i>
   <i name="APACO">     16.00000000</i>
  </separator>
  <separator name="symmetry" >
   <i type="int" name="ISYM">     0</i>
   <i name="SYMPREC">      0.00000001</i>
  </separator>
  <separator name="dos" >
   <i type="logical" name="LORBIT"> F  </i>
   <v name="RWIGS">     -1.00000000     -1.00000000     -1.00000000     -1.00000000</v>
   <i type="int" name="NEDOS">   301</i>
   <i name="EMIN">     10.00000000</i>
   <i name="EMAX">    -10.00000000</i>
   <i name="EFERMI">      0.00000000</i>
  </separator>
  <separator name="writing" >
   <i type="int" name="NWRITE">     2</i>
   <i type="logical" name="LWAVE"> F  </i>
   <i type="logical" name="LCHARG"> F  </i>
   <i type="logical" name="LPARD"> F  </i>
   <i type="logical" name="LVTOT"> F  </i>
   <i type="logical" name="LVHAR"> F  </i>
   <i type="logical" name="LELF"> F  </i>
   <i type="logical" name="LOPTICS"> F  </i>
   <v name="STM">      0.00000000      0.00000000      0.00000000      0.00000000      0.00000000      0.00000000      0.00000000</v>
  </separator>
  <separator name="performance" >
   <i type="int" name="NPAR">    40</i>
   <i type="int" name="NSIM">     4</i>
   <i type="int" name="NBLK">    -1</i>
   <i type="logical" name="LPLANE"> F  </i>
   <i type="logical" name="LSCALAPACK"> T  </i>
   <i type="logical" name="LSCAAWARE"> F  </i>
   <i type="logical" name="LSCALU"> F  </i>
   <i type="logical" name="LASYNC"> F  </i>
   <i type="logical" name="LORBITALREAL"> F  </i>
  </separator>
  <separator name="miscellaneous" >
   <i type="int" name="IDIOT">     3</i>
   <i type="logical" name="LMUSIC"> F  </i>
   <v name="POMASS">     50.94100000     95.94000000    183.85000000     32.06600000</v>
   <v name="DARWINR">      0.00000000      0.00000000      0.00000000      0.00000000</v>
   <v name="DARWINV">      1.00000000      1.00000000      1.00000000      1.00000000</v>
   <i type="logical" name="LCORR"> T  </i>
  </separator>
  <i type="logical" name="GGA_COMPAT"> T  </i>
  <i type="logical" name="LBERRY"> F  </i>
  <i type="int" name="ICORELEVEL">     0</i>
  <i type="logical" name="LDAU"> F  </i>
  <i type="int" name="I_CONSTRAINED_M">     0</i>
  <separator name="electronic exchange-correlation" >
   <i type="string" name="GGA">--</i>
   <i type="int" name="VOSKOWN">     0</i>
   <i type="logical" name="LHFCALC"> F  </i>
   <i type="string" name="PRECFOCK"></i>
   <i type="logical" name="LSYMGRAD"> F  </i>
   <i type="logical" name="LHFONE"> F  </i>
   <i type="logical" name="LRHFCALC"> F  </i>
   <i type="logical" name="LTHOMAS"> F  </i>
   <i type="logical" name="LMODELHF"> F  </i>
   <i name="ENCUT4O">     -1.00000000</i>
   <i type="int" name="EXXOEP">     0</i>
   <i type="int" name="FOURORBIT">     0</i>
   <i name="AEXX">      0.00000000</i>
   <i name="HFALPHA">      0.00000000</i>
   <i name="MCALPHA">      0.00000000</i>
   <i name="ALDAX">      1.00000000</i>
   <i name="AGGAX">      1.00000000</i>
   <i name="ALDAC">      1.00000000</i>
   <i name="AGGAC">      1.00000000</i>
   <i type="int" name="NKREDX">     1</i>
   <i type="int" name="NKREDY">     1</i>
   <i type="int" name="NKREDZ">     1</i>
   <i type="logical" name="SHIFTRED"> F  </i>
   <i type="logical" name="ODDONLY"> F  </i>
   <i type="logical" name="EVENONLY"> F  </i>
   <i type="int" name="LMAXFOCK">     0</i>
   <i type="int" name="NMAXFOCKAE">     0</i>
   <i type="logical" name="LFOCKAEDFT"> F  </i>
   <i name="HFSCREEN">      0.00000000</i>
   <i name="HFSCREENC">      0.00000000</i>
   <i type="int" name="NBANDSGWLOW">     0</i>
  </separator>
  <separator name="vdW DFT" >
   <i type="logical" name="LUSE_VDW"> F  </i>
   <i name="Zab_VDW">     -0.84910000</i>
   <i name="PARAM1">      0.12340000</i>
   <i name="PARAM2">      1.00000000</i>
   <i name="PARAM3">      0.00000000</i>
  </separator>
  <separator name="model GW" >
   <i type="int" name="MODEL_GW">     0</i>
   <i name="MODEL_EPS0">     58.26239943</i>
   <i name="MODEL_ALPHA">      1.00000000</i>
  </separator>
  <separator name="linear response parameters" >
   <i type="logical" name="LEPSILON"> F  </i>
   <i type="logical" name="LRPA"> F  </i>
   <i type="logical" name="LNABLA"> F  </i>
   <i type="logical" name="LVEL"> F  </i>
   <i type="int" name="KINTER">     0</i>
   <i name="CSHIFT">      0.10000000</i>
   <i name="OMEGAMAX">     -1.00000000</i>
   <i name="DEG_THRESHOLD">      0.00200000</i>
  </separator>
  <separator name="orbital magnetization" >
   <i type="logical" name="NUCIND"> F  </i>
   <v name="MAGPOS">      0.00000000      0.00000000      0.00000000</v>
   <i type="logical" name="LNICSALL"> T  </i>
   <i type="logical" name="ORBITALMAG"> F  </i>
   <i type="logical" name="LMAGBLOCH"> F  </i>
   <i type="logical" name="LCHIMAG"> F  </i>
   <i type="logical" name="LGAUGE"> T  </i>
   <i type="int" name="MAGATOM">     0</i>
   <v name="MAGDIPOL">      0.00000000      0.00000000      0.00000000</v>
   <v name="AVECCONST">      0.00000000      0.00000000      0.00000000</v>
  </separator>
  <separator name="response functions" >
   <i type="logical" name="LADDER"> F  </i>
   <i type="logical" name="LFXC"> F  </i>
   <i type="logical" name="LHARTREE"> T  </i>
   <i type="int" name="IBSE">     0</i>
   <v type="int" name="KPOINT">    -1     0     0     0</v>
   <i type="logical" name="LTCTE"> F  </i>
   <i type="logical" name="LTETE"> F  </i>
   <i type="logical" name="LTRIPLET"> F  </i>
   <i type="logical" name="LFXCEPS"> F  </i>
   <i type="logical" name="LFXHEG"> F  </i>
   <i type="int" name="NATURALO">     0</i>
   <i type="logical" name="L2ORDER"> F  </i>
   <i type="logical" name="LUSEW"> F  </i>
   <i name="ENCUTGW">     -2.00000000</i>
   <i name="ENCUTGWSOFT">     -2.00000000</i>
   <i name="ENCUTLF">     -1.00000000</i>
   <i type="int" name="LMAXMP2">    -1</i>
   <i name="SCISSOR">      0.00000000</i>
   <i type="int" name="NOMEGA">     0</i>
   <i type="int" name="NOMEGAR">     0</i>
   <i type="int" name="NBANDSGW">    -1</i>
   <i type="int" name="NBANDSO">    -1</i>
   <i type="int" name="NBANDSV">    -1</i>
   <i type="int" name="NELM">     1</i>
   <i type="int" name="NELMHF">     1</i>
   <i type="int" name="DIM">     3</i>
   <i type="int" name="ANTIRES">     0</i>
   <i name="OMEGAMAX">    -30.00000000</i>
   <i name="OMEGAMIN">    -30.00000000</i>
   <i name="OMEGATL">   -200.00000000</i>
   <i type="int" name="OMEGAGRID">     0</i>
   <i name="CSHIFT">     -0.10000000</i>
   <i type="logical" name="SELFENERGY"> F  </i>
   <i type="logical" name="LSPECTRAL"> F  </i>
   <i type="logical" name="LSPECTRALGW"> F  </i>
   <i type="logical" name="LSINGLES"> F  </i>
   <i type="logical" name="LFERMIGW"> F  </i>
   <i type="logical" name="ODDONLYGW"> F  </i>
   <i type="logical" name="EVENONLYGW"> F  </i>
   <i type="int" name="NKREDLFX">     1</i>
   <i type="int" name="NKREDLFY">     1</i>
   <i type="int" name="NKREDLFZ">     1</i>
   <i type="int" name="MAXMEM">  1800</i>
   <i type="int" name="TELESCOPE">     0</i>
   <i type="int" name="TAUPAR">     1</i>
   <i type="int" name="OMEGAPAR">    -1</i>
   <i name="LAMBDA">      1.00000000</i>
  </separator>
  <separator name="External order field" >
   <i name="OFIELD_KAPPA">      0.00000000</i>
   <v name="OFIELD_K">      0.00000000      0.00000000      0.00000000</v>
   <i name="OFIELD_Q6_NEAR">      0.00000000</i>
   <i name="OFIELD_Q6_FAR">      0.00000000</i>
   <i name="OFIELD_A">      0.00000000</i>
  </separator>
 </parameters>
 <atominfo>
  <atoms>      27 </atoms>
  <types>       4 </types>
  <array name="atoms" >
   <dimension dim="1">ion</dimension>
   <field type="string">element</field>
   <field type="int">atomtype</field>
   <set>
    <rc><c>V </c><c>   1</c></rc>
    <rc><c>V </c><c>   1</c></rc>
    <rc><c>V </c><c>   1</c></rc>
    <rc><c>Mo</c><c>   2</c></rc>
    <rc><c>Mo</c><c>   2</c></rc>
    <rc><c>Mo</c><c>   2</c></rc>
    <rc><c>W </c><c>   3</c></rc>
    <rc><c>W </c><c>   3</c></rc>
    <rc><c>W </c><c>   3</c></rc>
    <rc><c>S </c><c>   4</c></rc>
    <rc><c>S </c><c>   4</c></rc>
    <rc><c>S </c><c>   4</c></rc>
    <rc><c>S </c><c>   4</c></rc>
    <rc><c>S </c><c>   4</c></rc>
    <rc><c>S </c><c>   4</c></rc>
    <rc><c>S </c><c>   4</c></rc>
    <rc><c>S </c><c>   4</c></rc>
    <rc><c>S </c><c>   4</c></rc>
    <rc><c>S </c><c>   4</c></rc>
    <rc><c>S </c><c>   4</c></rc>
    <rc><c>S </c><c>   4</c></rc>
    <rc><c>S </c><c>   4</c></rc>
    <rc><c>S </c><c>   4</c></rc>
    <rc><c>S </c><c>   4</c></rc>
    <rc><c>S </c><c>   4</c></rc>
    <rc><c>S </c><c>   4</c></rc>
    <rc><c>S </c><c>   4</c></rc>
   </set>
  </array>
  <array name="atomtypes" >
   <dimension dim="1">type</dimension>
   <field type="int">atomspertype</field>
   <field type="string">element</field>
   <field>mass</field>
   <field>valence</field>
   <field type="string">pseudopotential</field>
   <set>
    <rc><c>   3</c><c>V </c><c>     50.94100000</c><c>      5.00000000</c><c> PAW_PBE V 08Apr2002                    </c></rc>
    <rc><c>   3</c><c>Mo</c><c>     95.94000000</c><c>      6.00000000</c><c> PAW_PBE Mo 08Apr2002                   </c></rc>
    <rc><c>   3</c><c>W </c><c>    183.85000000</c><c>      6.00000000</c><c> PAW_PBE W 08Apr2002                    </c></rc>
    <rc><c>  18</c><c>S </c><c>     32.06600000</c><c>      6.00000000</c><c>  PAW_PBE S 17Jan2003                   </c></rc>
   </set>
  </array>
 </atominfo>
 <structure name="initialpos" >
  <crystal>
   <varray name="basis" >
    <v>       8.66999996       5.03999989       0.00000000 </v>
    <v>      -8.66999982       5.04000013       0.00000000 </v>
    <v>       0.00000000       0.00000000      30.00000000 </v>
   </varray>
   <i name="volume">   2621.80797419 </i>
   <varray name="rec_basis" >
    <v>       0.05767013       0.09920635       0.00000000 </v>
    <v>      -0.05767013       0.09920635       0.00000000 </v>
    <v>       0.00000000       0.00000000       0.03333333 </v>
   </varray>
  </crystal>
  <varray name="positions" >
   <v>       0.00000000       0.66666669       0.00000000 </v>
   <v>       0.33333334       0.00000000       0.00000000 </v>
   <v>       0.66666669       0.00000000       0.00000000 </v>
   <v>       0.00000000       0.00000000       0.00000000 </v>
   <v>       0.66666669       0.66666669       0.00000000 </v>
   <v>       0.33333334       0.66666669       0.00000000 </v>
   <v>       1.00000000       0.33333334       0.00000000 </v>
   <v>       0.33333334       0.33333334       0.00000000 </v>
   <v>       0.66666669       0.33333334       0.00000000 </v>
   <v>       0.11068511       0.22244981       0.95539999 </v>
   <v>       0.22244981       0.11068511       0.04460000 </v>
   <v>       0.11068511       0.55578315       0.95539999 </v>
   <v>       0.22244981       0.44401845       0.04460000 </v>
   <v>       0.11068511       0.88911647       0.95539999 </v>
   <v>       0.22244981       0.77735180       0.04460000 </v>
   <v>       0.44401845       0.22244981       0.95539999 </v>
   <v>       0.55578315       0.11068511       0.04460000 </v>
   <v>       0.44401845       0.55578315       0.95539999 </v>
   <v>       0.55578315       0.44401845       0.04460000 </v>
   <v>       0.44401845       0.88911647       0.95539999 </v>
   <v>       0.55578315       0.77735180       0.04460000 </v>
   <v>       0.77735180       0.22244981       0.95539999 </v>
   <v>       0.88911647       0.11068511       0.04460000 </v>
   <v>       0.77735180       0.55578315       0.95539999 </v>
   <v>       0.88911647       0.44401845       0.04460000 </v>
   <v>       0.77735180       0.88911647       0.95539999 </v>
   <v>       0.88911647       0.77735180       0.04460000 </v>
  </varray>
 </structure>
 <calculation>
  <scstep>
   <time name="dav">   21.74   21.79</time>
   <time name="total">   21.78   21.84</time>
   <energy>
    <i name="alphaZ">     81.65567618 </i>
    <i name="ewald">  41890.23009645 </i>
    <i name="hartreedc"> -47722.87365997 </i>
    <i name="XCdc">   -242.92712339 </i>
    <i name="pawpsdc">   3467.42045192 </i>
    <i name="pawaedc">  -2871.19716117 </i>
    <i name="eentropy">     -0.52941036 </i>
    <i name="bandstr">   -239.28322838 </i>
    <i name="atom">   6761.44252427 </i>
    <i name="e_fr_energy">   1123.93816555 </i>
    <i name="e_wo_entrp">   1124.46757591 </i>
    <i name="e_0_energy">   1124.20287073 </i>
   </energy>
  </scstep>
  <scstep>
   <time name="dav">   28.51   28.58</time>
   <time name="total">   28.52   28.59</time>
   <energy>
    <i name="e_fr_energy">     -2.80152955 </i>
    <i name="e_wo_entrp">     -2.58697401 </i>
    <i name="e_0_energy">     -2.69425178 </i>
   </energy>
  </scstep>
  <scstep>
   <time name="dav">   27.49   27.56</time>
   <time name="total">   27.49   27.57</time>
   <energy>
    <i name="e_fr_energy">   -199.94702529 </i>
    <i name="e_wo_entrp">   -199.67444633 </i>
    <i name="e_0_energy">   -199.81073581 </i>
   </energy>
  </scstep>
  <scstep>
   <time name="dav">   30.15   30.23</time>
   <time name="total">   30.16   30.24</time>
   <energy>
    <i name="e_fr_energy">   -209.01786150 </i>
    <i name="e_wo_entrp">   -208.71390095 </i>
    <i name="e_0_energy">   -208.86588123 </i>
   </energy>
  </scstep>
  <scstep>
   <time name="dav">   27.89   27.95</time>
   <time name="total">   28.35   28.42</time>
   <energy>
    <i name="e_fr_energy">   -209.32499943 </i>
    <i name="e_wo_entrp">   -209.02350142 </i>
    <i name="e_0_energy">   -209.17425043 </i>
   </energy>
  </scstep>
  <scstep>
   <time name="dav">   31.04   31.11</time>
   <time name="total">   31.53   31.61</time>
   <energy>
    <i name="e_fr_energy">   -237.12401566 </i>
    <i name="e_wo_entrp">   -236.84380934 </i>
    <i name="e_0_energy">   -236.98391250 </i>
   </energy>
  </scstep>
  <scstep>
   <time name="dav">   32.18   32.26</time>
   <time name="total">   32.69   32.79</time>
   <energy>
    <i name="e_fr_energy">   -196.42581091 </i>
    <i name="e_wo_entrp">   -196.10591261 </i>
    <i name="e_0_energy">   -196.26586176 </i>
   </energy>
  </scstep>
  <scstep>
   <time name="dav">   29.94   30.01</time>
   <time name="total">   30.45   30.53</time>
   <energy>
    <i name="e_fr_energy">   -189.39927859 </i>
    <i name="e_wo_entrp">   -189.10796508 </i>
    <i name="e_0_energy">   -189.25362183 </i>
   </energy>
  </scstep>
  <scstep>
   <time name="dav">   31.45   31.52</time>
   <time name="total">   31.96   32.05</time>
   <energy>
    <i name="e_fr_energy">   -188.16602078 </i>
    <i name="e_wo_entrp">   -187.82820098 </i>
    <i name="e_0_energy">   -187.99711088 </i>
   </energy>
  </scstep>
  <scstep>
   <time name="dav">   32.80   32.88</time>
   <time name="total">   33.33   33.42</time>
   <energy>
    <i name="e_fr_energy">   -186.99888064 </i>
    <i name="e_wo_entrp">   -186.65153723 </i>
    <i name="e_0_energy">   -186.82520893 </i>
   </energy>
  </scstep>
  <scstep>
   <time name="dav">   32.43   32.51</time>
   <time name="total">   32.97   33.05</time>
   <energy>
    <i name="e_fr_energy">   -186.96888036 </i>
    <i name="e_wo_entrp">   -186.61907866 </i>
    <i name="e_0_energy">   -186.79397951 </i>
   </energy>
  </scstep>
  <scstep>
   <time name="dav">   29.88   29.95</time>
   <time name="total">   30.41   30.49</time>
   <energy>
    <i name="e_fr_energy">   -187.09620732 </i>
    <i name="e_wo_entrp">   -186.75649894 </i>
    <i name="e_0_energy">   -186.92635313 </i>
   </energy>
  </scstep>
  <scstep>
   <time name="dav">   31.60   31.67</time>
   <time name="total">   32.14   32.22</time>
   <energy>
    <i name="e_fr_energy">   -186.87984202 </i>
    <i name="e_wo_entrp">   -186.54323522 </i>
    <i name="e_0_energy">   -186.71153862 </i>
   </energy>
  </scstep>
  <scstep>
   <time name="dav">   32.53   32.61</time>
   <time name="total">   33.06   33.15</time>
   <energy>
    <i name="e_fr_energy">   -186.85611213 </i>
    <i name="e_wo_entrp">   -186.51165702 </i>
    <i name="e_0_energy">   -186.68388458 </i>
   </energy>
  </scstep>
  <scstep>
   <time name="dav">   29.61   29.68</time>
   <time name="total">   30.14   30.22</time>
   <energy>
    <i name="e_fr_energy">   -186.83529425 </i>
    <i name="e_wo_entrp">   -186.48844517 </i>
    <i name="e_0_energy">   -186.66186971 </i>
   </energy>
  </scstep>
  <scstep>
   <time name="dav">   29.40   29.47</time>
   <time name="total">   29.93   30.01</time>
   <energy>
    <i name="e_fr_energy">   -186.82783346 </i>
    <i name="e_wo_entrp">   -186.48103122 </i>
    <i name="e_0_energy">   -186.65443234 </i>
   </energy>
  </scstep>
  <scstep>
   <time name="dav">   30.71   30.78</time>
   <time name="total">   31.24   31.32</time>
   <energy>
    <i name="e_fr_energy">   -186.82594146 </i>
    <i name="e_wo_entrp">   -186.48115926 </i>
    <i name="e_0_energy">   -186.65355036 </i>
   </energy>
  </scstep>
  <scstep>
   <time name="dav">   29.04   29.11</time>
   <time name="total">   29.56   29.64</time>
   <energy>
    <i name="e_fr_energy">   -186.82549069 </i>
    <i name="e_wo_entrp">   -186.48044456 </i>
    <i name="e_0_energy">   -186.65296763 </i>
   </energy>
  </scstep>
  <scstep>
   <time name="dav">   27.37   27.43</time>
   <time name="total">   27.90   27.97</time>
   <energy>
    <i name="e_fr_energy">   -186.82514166 </i>
    <i name="e_wo_entrp">   -186.47981538 </i>
    <i name="e_0_energy">   -186.65247852 </i>
   </energy>
  </scstep>
  <scstep>
   <time name="dav">   23.98   24.04</time>
   <time name="total">   24.51   24.58</time>
   <energy>
    <i name="e_fr_energy">   -186.82587547 </i>
    <i name="e_wo_entrp">   -186.48072386 </i>
    <i name="e_0_energy">   -186.65329967 </i>
   </energy>
  </scstep>
  <scstep>
   <time name="dav">   21.16   21.21</time>
   <time name="total">   21.69   21.75</time>
   <energy>
    <i name="e_fr_energy">   -186.82646809 </i>
    <i name="e_wo_entrp">   -186.48149167 </i>
    <i name="e_0_energy">   -186.65397988 </i>
   </energy>
  </scstep>
  <scstep>
   <time name="dav">   20.61   20.66</time>
   <time name="total">   21.14   21.20</time>
   <energy>
    <i name="e_fr_energy">   -186.82764063 </i>
    <i name="e_wo_entrp">   -186.48249153 </i>
    <i name="e_0_energy">   -186.65506608 </i>
   </energy>
  </scstep>
  <scstep>
   <time name="dav">   20.30   20.34</time>
   <time name="total">   20.83   20.88</time>
   <energy>
    <i name="e_fr_energy">   -186.82886058 </i>
    <i name="e_wo_entrp">   -186.48382634 </i>
    <i name="e_0_energy">   -186.65634346 </i>
   </energy>
  </scstep>
  <scstep>
   <time name="dav">   18.65   18.70</time>
   <time name="total">   19.18   19.23</time>
   <energy>
    <i name="e_fr_energy">   -186.82945146 </i>
    <i name="e_wo_entrp">   -186.48439841 </i>
    <i name="e_0_energy">   -186.65692493 </i>
   </energy>
  </scstep>
  <scstep>
   <time name="dav">   16.77   16.81</time>
   <time name="total">   17.30   17.35</time>
   <energy>
    <i name="e_fr_energy">   -186.82981477 </i>
    <i name="e_wo_entrp">   -186.48472204 </i>
    <i name="e_0_energy">   -186.65726841 </i>
   </energy>
  </scstep>
  <scstep>
   <time name="dav">   18.90   18.94</time>
   <time name="total">   19.43   19.48</time>
   <energy>
    <i name="e_fr_energy">   -186.83004958 </i>
    <i name="e_wo_entrp">   -186.48497400 </i>
    <i name="e_0_energy">   -186.65751179 </i>
   </energy>
  </scstep>
  <scstep>
   <time name="dav">   19.78   19.83</time>
   <time name="total">   20.31   20.37</time>
   <energy>
    <i name="e_fr_energy">   -186.83015214 </i>
    <i name="e_wo_entrp">   -186.48507390 </i>
    <i name="e_0_energy">   -186.65761302 </i>
   </energy>
  </scstep>
  <scstep>
   <time name="dav">   20.14   20.18</time>
   <time name="total">   20.17   20.23</time>
   <energy>
    <i name="alphaZ">     81.65567618 </i>
    <i name="ewald">  41890.23009645 </i>
    <i name="hartreedc"> -47832.85881079 </i>
    <i name="XCdc">   -231.61139777 </i>
    <i name="pawpsdc">   4192.00336912 </i>
    <i name="pawaedc">  -3610.00560690 </i>
    <i name="eentropy">     -0.34507551 </i>
    <i name="bandstr">  -1437.34096814 </i>
    <i name="atom">   6761.44252427 </i>
    <i name="e_fr_energy">   -186.83019310 </i>
    <i name="e_wo_entrp">   -186.48511759 </i>
    <i name="e_0_energy">   -186.65765534 </i>
   </energy>
  </scstep>
  <structure>
   <crystal>
    <varray name="basis" >
     <v>       8.66999996       5.03999989       0.00000000 </v>
     <v>      -8.66999982       5.04000013       0.00000000 </v>
     <v>       0.00000000       0.00000000      30.00000000 </v>
    </varray>
    <i name="volume">   2621.80797419 </i>
    <varray name="rec_basis" >
     <v>       0.05767013       0.09920635       0.00000000 </v>
     <v>      -0.05767013       0.09920635       0.00000000 </v>
     <v>       0.00000000       0.00000000       0.03333333 </v>
    </varray>
   </crystal>
   <varray name="positions" >
    <v>       0.00000000       0.66666669       0.00000000 </v>
    <v>       0.33333334       0.00000000       0.00000000 </v>
    <v>       0.66666669       0.00000000       0.00000000 </v>
    <v>       0.00000000       0.00000000       0.00000000 </v>
    <v>       0.66666669       0.66666669       0.00000000 </v>
    <v>       0.33333334       0.66666669       0.00000000 </v>
    <v>       1.00000000       0.33333334       0.00000000 </v>
    <v>       0.33333334       0.33333334       0.00000000 </v>
    <v>       0.66666669       0.33333334       0.00000000 </v>
    <v>       0.11068511       0.22244981       0.95539999 </v>
    <v>       0.22244981       0.11068511       0.04460000 </v>
    <v>       0.11068511       0.55578315       0.95539999 </v>
    <v>       0.22244981       0.44401845       0.04460000 </v>
    <v>       0.11068511       0.88911647       0.95539999 </v>
    <v>       0.22244981       0.77735180       0.04460000 </v>
    <v>       0.44401845       0.22244981       0.95539999 </v>
    <v>       0.55578315       0.11068511       0.04460000 </v>
    <v>       0.44401845       0.55578315       0.95539999 </v>
    <v>       0.55578315       0.44401845       0.04460000 </v>
    <v>       0.44401845       0.88911647       0.95539999 </v>
    <v>       0.55578315       0.77735180       0.04460000 </v>
    <v>       0.77735180       0.22244981       0.95539999 </v>
    <v>       0.88911647       0.11068511       0.04460000 </v>
    <v>       0.77735180       0.55578315       0.95539999 </v>
    <v>       0.88911647       0.44401845       0.04460000 </v>
    <v>       0.77735180       0.88911647       0.95539999 </v>
    <v>       0.88911647       0.77735180       0.04460000 </v>
   </varray>
  </structure>
  <varray name="forces" >
   <v>      -0.22349296       0.19781080      -0.10129022 </v>
   <v>       0.09006297      -0.26753509       0.00950660 </v>
   <v>       0.35815187      -0.28165118       0.09282214 </v>
   <v>       0.01919985      -0.28346212       0.00166635 </v>
   <v>      -0.25099098       0.14409346      -0.09690102 </v>
   <v>       0.19205856       0.16239183      -0.00901937 </v>
   <v>       0.24269971       0.13998370       0.10107272 </v>
   <v>      -0.25204859       0.12872216       0.02092174 </v>
   <v>      -0.21614867       0.10352836       0.02357414 </v>
   <v>       0.08679767       0.13979683      -2.91071064 </v>
   <v>       0.65484331       0.15816868       2.07453418 </v>
   <v>      -0.69309063      -0.14559197      -2.10019221 </v>
   <v>      -0.05152658      -0.15522598       2.95350302 </v>
   <v>       0.91251026      -0.02907945      -1.49065637 </v>
   <v>      -0.89284395       0.00252118       1.45621368 </v>
   <v>       0.46257329      -0.56947127      -2.16550668 </v>
   <v>       0.25360031      -0.51608584       1.40973616 </v>
   <v>       0.22663054      -0.14054827      -2.91153904 </v>
   <v>      -0.05260816      -0.15347483       2.88635382 </v>
   <v>      -0.32416068       0.66111698      -1.41947772 </v>
   <v>      -0.55336868       0.71827527       2.18665218 </v>
   <v>       0.46211676      -0.57666066      -2.12109739 </v>
   <v>      -0.63914161      -0.56427723       2.17069920 </v>
   <v>       0.62233716       0.56493241      -2.18137693 </v>
   <v>      -0.45062376       0.56226642       2.15189146 </v>
   <v>      -0.72722338      -0.00994416      -2.13800268 </v>
   <v>       0.74368639       0.00939995       2.10662285 </v>
  </varray>
  <varray name="stress" >
   <v>       7.44833434       0.05589150      -1.64573364 </v>
   <v>       0.05589160       4.27486120       0.13651474 </v>
   <v>      -1.64573369       0.13651456      30.33683281 </v>
  </varray>
  <energy>
   <i name="e_fr_energy">   -186.83019310 </i>
   <i name="e_wo_entrp">   -186.65765534 </i>
   <i name="e_0_energy">     -0.34507551 </i>
  </energy>
  <time name="totalsc">  800.09  802.23</time>
 </calculation>
 <calculation>
  <scstep>
   <time name="dav">   21.69   21.74</time>
   <time name="total">   22.23   22.28</time>
   <energy>
    <i name="alphaZ">     78.92874703 </i>
    <i name="ewald">  39382.88732480 </i>
    <i name="hartreedc"> -45340.38565365 </i>
    <i name="XCdc">   -239.06586954 </i>
    <i name="pawpsdc">   4192.00386422 </i>
    <i name="pawaedc">  -3610.00609291 </i>
    <i name="eentropy">     -0.28492779 </i>
    <i name="bandstr">  -1412.97994516 </i>
    <i name="atom">   6761.44252427 </i>
    <i name="e_fr_energy">   -187.46002874 </i>
    <i name="e_wo_entrp">   -187.17510095 </i>
    <i name="e_0_energy">   -187.31756484 </i>
   </energy>
  </scstep>
  <scstep>
   <time name="dav">   30.33   30.41</time>
   <time name="total">   30.87   30.95</time>
   <energy>
    <i name="e_fr_energy">   -189.37186927 </i>
    <i name="e_wo_entrp">   -189.04934412 </i>
    <i name="e_0_energy">   -189.21060670 </i>
   </energy>
  </scstep>
  <scstep>
   <time name="dav">   30.47   30.54</time>
   <time name="total">   31.01   31.10</time>
   <energy>
    <i name="e_fr_energy">   -189.33281910 </i>
    <i name="e_wo_entrp">   -189.05352351 </i>
    <i name="e_0_energy">   -189.19317131 </i>
   </energy>
  </scstep>
  <scstep>
   <time name="dav">   30.78   30.85</time>
   <time name="total">   31.32   31.40</time>
   <energy>
    <i name="e_fr_energy">   -188.72638357 </i>
    <i name="e_wo_entrp">   -188.44126429 </i>
    <i name="e_0_energy">   -188.58382393 </i>
   </energy>
  </scstep>
  <scstep>
   <time name="dav">   28.72   28.79</time>
   <time name="total">   29.26   29.33</time>
   <energy>
    <i name="e_fr_energy">   -188.74121917 </i>
    <i name="e_wo_entrp">   -188.45211977 </i>
    <i name="e_0_energy">   -188.59666947 </i>
   </energy>
  </scstep>
  <scstep>
   <time name="dav">   31.05   31.13</time>
   <time name="total">   31.59   31.67</time>
   <energy>
    <i name="e_fr_energy">   -188.73510048 </i>
    <i name="e_wo_entrp">   -188.44424949 </i>
    <i name="e_0_energy">   -188.58967498 </i>
   </energy>
  </scstep>
  <scstep>
   <time name="dav">   30.57   30.65</time>
   <time name="total">   31.11   31.20</time>
   <energy>
    <i name="e_fr_energy">   -188.66045125 </i>
    <i name="e_wo_entrp">   -188.37548256 </i>
    <i name="e_0_energy">   -188.51796690 </i>
   </energy>
  </scstep>
  <scstep>
   <time name="dav">   30.49   30.57</time>
   <time name="total">   31.03   31.11</time>
   <energy>
    <i name="e_fr_energy">   -188.64004656 </i>
    <i name="e_wo_entrp">   -188.35446594 </i>
    <i name="e_0_energy">   -188.49725625 </i>
   </energy>
  </scstep>
  <scstep>
   <time name="dav">   29.75   29.82</time>
   <time name="total">   30.29   30.38</time>
   <energy>
    <i name="e_fr_energy">   -188.63741330 </i>
    <i name="e_wo_entrp">   -188.35286522 </i>
    <i name="e_0_energy">   -188.49513926 </i>
   </energy>
  </scstep>
  <scstep>
   <time name="dav">   31.45   31.53</time>
   <time name="total">   31.99   32.08</time>
   <energy>
    <i name="e_fr_energy">   -188.63472752 </i>
    <i name="e_wo_entrp">   -188.34961267 </i>
    <i name="e_0_energy">   -188.49217010 </i>
   </energy>
  </scstep>
  <scstep>
   <time name="dav">   31.38   31.45</time>
   <time name="total">   31.92   32.00</time>
   <energy>
    <i name="e_fr_energy">   -188.63430281 </i>
    <i name="e_wo_entrp">   -188.34991904 </i>
    <i name="e_0_energy">   -188.49211092 </i>
   </energy>
  </scstep>
  <scstep>
   <time name="dav">   29.51   29.58</time>
   <time name="total">   29.55   29.63</time>
   <energy>
    <i name="alphaZ">     78.92874703 </i>
    <i name="ewald">  39382.88732480 </i>
    <i name="hartreedc"> -45351.29567851 </i>
    <i name="XCdc">   -237.97598696 </i>
    <i name="pawpsdc">   3952.38237799 </i>
    <i name="pawaedc">  -3366.90689142 </i>
    <i name="eentropy">     -0.28420424 </i>
    <i name="bandstr">  -1407.81259264 </i>
    <i name="atom">   6761.44252427 </i>
    <i name="e_fr_energy">   -188.63437969 </i>
    <i name="e_wo_entrp">   -188.35017544 </i>
    <i name="e_0_energy">   -188.49227757 </i>
   </energy>
  </scstep>
  <structure>
   <crystal>
    <varray name="basis" >
     <v>       8.85963837       5.10441235       0.00000000 </v>
     <v>      -8.85799096       5.10157890       0.00000000 </v>
     <v>       0.00000000       0.00000000      30.00000000 </v>
    </varray>
    <i name="volume">   2712.38947787 </i>
    <varray name="rec_basis" >
     <v>       0.05642529       0.09797256       0.00000000 </v>
     <v>      -0.05645663       0.09799078       0.00000000 </v>
     <v>       0.00000000       0.00000000       0.03333333 </v>
    </varray>
   </crystal>
   <varray name="positions" >
    <v>       0.00032492       0.66823520      -0.00016288 </v>
    <v>       0.33230350      -0.00153099       0.00001529 </v>
    <v>       0.66631515      -0.00234441       0.00014927 </v>
    <v>      -0.00130323      -0.00141006       0.00000268 </v>
    <v>       0.66665802       0.66805461      -0.00015583 </v>
    <v>       0.33464488       0.66690955      -0.00001450 </v>
    <v>       1.00134519       0.33332807       0.00016253 </v>
    <v>       0.33324817       0.33465064       0.00003364 </v>
    <v>       0.66656081       0.33443019       0.00003791 </v>
    <v>       0.11159566       0.22287739       0.95071931 </v>
    <v>       0.22502868       0.10962022       0.04793603 </v>
    <v>       0.10806002       0.55701464       0.95202270 </v>
    <v>       0.22156355       0.44341890       0.04934949 </v>
    <v>       0.11308469       0.88643854       0.95300288 </v>
    <v>       0.21997784       0.77984790       0.04694172 </v>
    <v>       0.44257993       0.21843738       0.95191766 </v>
    <v>       0.55401873       0.10750958       0.04686698 </v>
    <v>       0.44397631       0.55447997       0.95071798 </v>
    <v>       0.55490226       0.44343029       0.04924151 </v>
    <v>       0.44628068       0.89318242       0.95311734 </v>
    <v>       0.55768124       0.78232901       0.04811633 </v>
    <v>       0.77587759       0.21840424       0.95198908 </v>
    <v>       0.88463765       0.10976269       0.04809068 </v>
    <v>       0.78178699       0.55675546       0.95189214 </v>
    <v>       0.89055375       0.44796316       0.04806043 </v>
    <v>       0.77528095       0.89109213       0.95196189 </v>
    <v>       0.89123051       0.77532773       0.04798763 </v>
   </varray>
  </structure>
  <varray name="forces" >
   <v>      -0.22284909       0.11432900      -0.02417776 </v>
   <v>       0.04436046      -0.19298326       0.07278078 </v>
   <v>       0.34377613      -0.22516022       0.01722018 </v>
   <v>      -0.11768360      -0.20080248       0.07164543 </v>
   <v>      -0.18287180      -0.01429032      -0.02195341 </v>
   <v>       0.46032779      -0.05851920      -0.06903202 </v>
   <v>       0.37705236       0.21755044      -0.06947065 </v>
   <v>      -0.38318311       0.18042320       0.00713361 </v>
   <v>      -0.28907912       0.11482901      -0.01197061 </v>
   <v>      -0.06945437       0.09951958       0.00312091 </v>
   <v>      -0.01310627       0.09830568      -0.11766237 </v>
   <v>       0.02516231      -0.10613593       0.08944089 </v>
   <v>       0.07659441      -0.10018167       0.15275804 </v>
   <v>       0.04347110      -0.01631569      -0.01942774 </v>
   <v>      -0.02956126       0.01082288      -0.10232612 </v>
   <v>      -0.05105663       0.05955004       0.14322564 </v>
   <v>      -0.05572184       0.07535130      -0.18841931 </v>
   <v>       0.06318290      -0.09161579      -0.18451805 </v>
   <v>       0.05924035      -0.08799229       0.00781255 </v>
   <v>      -0.00208572       0.04502520       0.07001150 </v>
   <v>      -0.03898526       0.09120383       0.16416591 </v>
   <v>      -0.05425604       0.05104165       0.27133985 </v>
   <v>      -0.09062310       0.03126131       0.01729680 </v>
   <v>       0.07205133      -0.04036219      -0.02118988 </v>
   <v>       0.04961631      -0.04730873      -0.13910262 </v>
   <v>      -0.07056028      -0.00575826      -0.17197172 </v>
   <v>       0.05624206      -0.00178710       0.05327016 </v>
  </varray>
  <varray name="stress" >
   <v>     -19.98060049       0.01512490       0.06130277 </v>
   <v>       0.01512510     -19.53321905       0.06111527 </v>
   <v>       0.06130290       0.06111513      -1.72686941 </v>
  </varray>
  <energy>
   <i name="e_fr_energy">   -188.63437969 </i>
   <i name="e_wo_entrp">   -188.49227757 </i>
   <i name="e_0_energy">     -0.28420424 </i>
  </energy>
  <time name="totalsc">  403.95  405.01</time>
 </calculation>
 <calculation>
  <scstep>
   <time name="dav">   23.96   24.02</time>
   <time name="total">   24.49   24.55</time>
   <energy>
    <i name="alphaZ">     82.37034151 </i>
    <i name="ewald">  41315.66162017 </i>
    <i name="hartreedc"> -47314.77998261 </i>
    <i name="XCdc">   -233.83794535 </i>
    <i name="pawpsdc">   3950.17398600 </i>
    <i name="pawaedc">  -3364.67455349 </i>
    <i name="eentropy">     -0.23652760 </i>
    <i name="bandstr">  -1386.68222038 </i>
    <i name="atom">   6761.44252427 </i>
    <i name="e_fr_energy">   -190.56275748 </i>
    <i name="e_wo_entrp">   -190.32622987 </i>
    <i name="e_0_energy">   -190.44449367 </i>
   </energy>
  </scstep>
  <scstep>
   <time name="dav">   28.37   28.44</time>
   <time name="total">   28.89   28.97</time>
   <energy>
    <i name="e_fr_energy">   -190.55141103 </i>
    <i name="e_wo_entrp">   -190.31199330 </i>
    <i name="e_0_energy">   -190.43170216 </i>
   </energy>
  </scstep>
  <scstep>
   <time name="dav">   30.13   30.20</time>
   <time name="total">   30.65   30.73</time>
   <energy>
    <i name="e_fr_energy">   -190.03209964 </i>
    <i name="e_wo_entrp">   -189.78350241 </i>
    <i name="e_0_energy">   -189.90780102 </i>
   </energy>
  </scstep>
  <scstep>
   <time name="dav">   31.42   31.50</time>
   <time name="total">   31.96   32.04</time>
   <energy>
    <i name="e_fr_energy">   -189.82450196 </i>
    <i name="e_wo_entrp">   -189.58739838 </i>
    <i name="e_0_energy">   -189.70595017 </i>
   </energy>
  </scstep>
  <scstep>
   <time name="dav">   28.30   28.37</time>
   <time name="total">   28.83   28.91</time>
   <energy>
    <i name="e_fr_energy">   -189.74027914 </i>
    <i name="e_wo_entrp">   -189.49825895 </i>
    <i name="e_0_energy">   -189.61926905 </i>
   </energy>
  </scstep>
  <scstep>
   <time name="dav">   29.55   29.62</time>
   <time name="total">   30.08   30.16</time>
   <energy>
    <i name="e_fr_energy">   -189.72644399 </i>
    <i name="e_wo_entrp">   -189.48775999 </i>
    <i name="e_0_energy">   -189.60710199 </i>
   </energy>
  </scstep>
  <scstep>
   <time name="dav">   30.03   30.10</time>
   <time name="total">   30.56   30.64</time>
   <energy>
    <i name="e_fr_energy">   -189.72066298 </i>
    <i name="e_wo_entrp">   -189.48106591 </i>
    <i name="e_0_energy">   -189.60086444 </i>
   </energy>
  </scstep>
  <scstep>
   <time name="dav">   27.66   27.72</time>
   <time name="total">   28.18   28.26</time>
   <energy>
    <i name="e_fr_energy">   -189.72051723 </i>
    <i name="e_wo_entrp">   -189.48119498 </i>
    <i name="e_0_energy">   -189.60085610 </i>
   </energy>
  </scstep>
  <scstep>
   <time name="dav">   26.39   26.45</time>
   <time name="total">   26.92   26.99</time>
   <energy>
    <i name="e_fr_energy">   -189.72077742 </i>
    <i name="e_wo_entrp">   -189.48126221 </i>
    <i name="e_0_energy">   -189.60101982 </i>
   </energy>
  </scstep>
  <scstep>
   <time name="dav">   26.50   26.56</time>
   <time name="total">   27.03   27.10</time>
   <energy>
    <i name="e_fr_energy">   -189.72114485 </i>
    <i name="e_wo_entrp">   -189.48166496 </i>
    <i name="e_0_energy">   -189.60140490 </i>
   </energy>
  </scstep>
  <scstep>
   <time name="dav">   24.07   24.13</time>
   <time name="total">   24.60   24.66</time>
   <energy>
    <i name="e_fr_energy">   -189.72057336 </i>
    <i name="e_wo_entrp">   -189.48104795 </i>
    <i name="e_0_energy">   -189.60081066 </i>
   </energy>
  </scstep>
  <scstep>
   <time name="dav">   16.83   16.87</time>
   <time name="total">   16.87   16.91</time>
   <energy>
    <i name="alphaZ">     82.37034151 </i>
    <i name="ewald">  41315.66162017 </i>
    <i name="hartreedc"> -47287.99709550 </i>
    <i name="XCdc">   -235.23878877 </i>
    <i name="pawpsdc">   4038.99592051 </i>
    <i name="pawaedc">  -3454.69857797 </i>
    <i name="eentropy">     -0.23946189 </i>
    <i name="bandstr">  -1410.01707619 </i>
    <i name="atom">   6761.44252427 </i>
    <i name="e_fr_energy">   -189.72059386 </i>
    <i name="e_wo_entrp">   -189.48113197 </i>
    <i name="e_0_energy">   -189.60086291 </i>
   </energy>
  </scstep>
  <structure>
   <crystal>
    <varray name="basis" >
     <v>       8.67054187       4.99800199       0.00000000 </v>
     <v>      -8.66876467       4.99494130       0.00000000 </v>
     <v>       0.00000000       0.00000000      30.00000000 </v>
    </varray>
    <i name="volume">   2599.06052365 </i>
    <varray name="rec_basis" >
     <v>       0.05765477       0.10006036       0.00000000 </v>
     <v>      -0.05769010       0.10008088       0.00000000 </v>
     <v>       0.00000000       0.00000000       0.03333333 </v>
    </varray>
   </crystal>
   <varray name="positions" >
    <v>       0.00030152       0.66864058      -0.00017662 </v>
    <v>       0.33202391      -0.00189598       0.00005664 </v>
    <v>       0.66626978      -0.00305126       0.00015905 </v>
    <v>      -0.00175171      -0.00163219       0.00004338 </v>
    <v>       0.66645829       0.66820671      -0.00016830 </v>
    <v>       0.33498987       0.66636887      -0.00005372 </v>
    <v>       1.00207108       0.33332860       0.00012307 </v>
    <v>       0.33318093       0.33532069       0.00003770 </v>
    <v>       0.66647455       0.33490013       0.00003111 </v>
    <v>       0.11169505       0.22311043       0.95072108 </v>
    <v>       0.22518023       0.10979702       0.04786919 </v>
    <v>       0.10790699       0.55681317       0.95207351 </v>
    <v>       0.22146992       0.44317788       0.04943628 </v>
    <v>       0.11309925       0.88636946       0.95299185 </v>
    <v>       0.21996748       0.77989442       0.04688358 </v>
    <v>       0.44263027       0.21858597       0.95199903 </v>
    <v>       0.55409097       0.10768904       0.04675993 </v>
    <v>       0.44388409       0.55426616       0.95061315 </v>
    <v>       0.55481230       0.44322633       0.04924595 </v>
    <v>       0.44635386       0.89325963       0.95315712 </v>
    <v>       0.55779605       0.78251884       0.04820960 </v>
    <v>       0.77591065       0.21854170       0.95214323 </v>
    <v>       0.88460270       0.10990210       0.04810050 </v>
    <v>       0.78178889       0.55661872       0.95188010 </v>
    <v>       0.89052247       0.44783640       0.04798140 </v>
    <v>       0.77520348       0.89115040       0.95186419 </v>
    <v>       0.89128161       0.77527063       0.04801790 </v>
   </varray>
  </structure>
  <varray name="forces" >
   <v>      -0.22482676       0.05261057       0.00145200 </v>
   <v>       0.01040119      -0.15204319       0.07325389 </v>
   <v>       0.34774692      -0.18595157      -0.00384871 </v>
   <v>      -0.15861743      -0.16033452       0.06916732 </v>
   <v>      -0.14552418      -0.07636111      -0.00036332 </v>
   <v>       0.53671325      -0.14666841      -0.05801185 </v>
   <v>       0.42056070       0.25088533      -0.08596137 </v>
   <v>      -0.42720394       0.19661781       0.00523263 </v>
   <v>      -0.31715591       0.12125485      -0.01734224 </v>
   <v>      -0.01405219       0.02885787      -0.55931866 </v>
   <v>       0.09271168       0.03664744       0.35915247 </v>
   <v>      -0.08758506      -0.03082111      -0.40179794 </v>
   <v>       0.03295960      -0.02507157       0.74831669 </v>
   <v>       0.11101506      -0.00961200      -0.47569958 </v>
   <v>      -0.08703148       0.00524130       0.33133799 </v>
   <v>       0.01281579      -0.07530816      -0.35559028 </v>
   <v>       0.02178096      -0.05595351       0.26187623 </v>
   <v>       0.03186560      -0.01824788      -0.76004268 </v>
   <v>       0.00664622      -0.01839103       0.57169672 </v>
   <v>      -0.03941119       0.10536354      -0.37375858 </v>
   <v>      -0.07086121       0.14516674       0.66908753 </v>
   <v>       0.01778897      -0.07073827      -0.20967034 </v>
   <v>      -0.09363162      -0.09696631       0.52609105 </v>
   <v>       0.05644686       0.10471987      -0.53380350 </v>
   <v>      -0.01740129       0.08915462       0.35332530 </v>
   <v>      -0.14579745      -0.00351902      -0.67397706 </v>
   <v>       0.12964692      -0.01053228       0.53919626 </v>
  </varray>
  <varray name="stress" >
   <v>     -10.17592978      -0.02984407       0.07076126 </v>
   <v>      -0.02984372      -9.77139219       0.03636934 </v>
   <v>       0.07076135       0.03636931       6.53662954 </v>
  </varray>
  <energy>
   <i name="e_fr_energy">   -189.72059386 </i>
   <i name="e_wo_entrp">   -189.60086291 </i>
   <i name="e_0_energy">     -0.23946189 </i>
  </energy>
  <time name="totalsc">  370.93  371.91</time>
 </calculation>
 <calculation>
  <scstep>
   <time name="dav">   21.73   21.79</time>
   <time name="total">   22.25   22.30</time>
   <energy>
    <i name="alphaZ">     85.82669757 </i>
    <i name="ewald">  42833.77932569 </i>
    <i name="hartreedc"> -48850.44919956 </i>
    <i name="XCdc">   -232.98052023 </i>
    <i name="pawpsdc">   4039.01262854 </i>
    <i name="pawaedc">  -3454.71250457 </i>
    <i name="eentropy">     -0.19652593 </i>
    <i name="bandstr">  -1372.97612611 </i>
    <i name="atom">   6761.44252427 </i>
    <i name="e_fr_energy">   -191.25370033 </i>
    <i name="e_wo_entrp">   -191.05717440 </i>
    <i name="e_0_energy">   -191.15543737 </i>
   </energy>
  </scstep>
  <scstep>
   <time name="dav">   32.40   32.48</time>
   <time name="total">   32.91   33.00</time>
   <energy>
    <i name="e_fr_energy">   -191.13854215 </i>
    <i name="e_wo_entrp">   -190.93587831 </i>
    <i name="e_0_energy">   -191.03721023 </i>
   </energy>
  </scstep>
  <scstep>
   <time name="dav">   30.04   30.12</time>
   <time name="total">   30.55   30.63</time>
   <energy>
    <i name="e_fr_energy">   -191.17974695 </i>
    <i name="e_wo_entrp">   -190.96319760 </i>
    <i name="e_0_energy">   -191.07147227 </i>
   </energy>
  </scstep>
  <scstep>
   <time name="dav">   30.86   30.93</time>
   <time name="total">   31.37   31.46</time>
   <energy>
    <i name="e_fr_energy">   -190.82621627 </i>
    <i name="e_wo_entrp">   -190.62207663 </i>
    <i name="e_0_energy">   -190.72414645 </i>
   </energy>
  </scstep>
  <scstep>
   <time name="dav">   29.54   29.61</time>
   <time name="total">   30.06   30.14</time>
   <energy>
    <i name="e_fr_energy">   -190.82362692 </i>
    <i name="e_wo_entrp">   -190.62549535 </i>
    <i name="e_0_energy">   -190.72456113 </i>
   </energy>
  </scstep>
  <scstep>
   <time name="dav">   29.92   30.00</time>
   <time name="total">   30.44   30.52</time>
   <energy>
    <i name="e_fr_energy">   -190.68321435 </i>
    <i name="e_wo_entrp">   -190.47905224 </i>
    <i name="e_0_energy">   -190.58113329 </i>
   </energy>
  </scstep>
  <scstep>
   <time name="dav">   30.34   30.41</time>
   <time name="total">   30.86   30.93</time>
   <energy>
    <i name="e_fr_energy">   -190.67817059 </i>
    <i name="e_wo_entrp">   -190.47600802 </i>
    <i name="e_0_energy">   -190.57708930 </i>
   </energy>
  </scstep>
  <scstep>
   <time name="dav">   28.85   28.92</time>
   <time name="total">   29.36   29.44</time>
   <energy>
    <i name="e_fr_energy">   -190.67676079 </i>
    <i name="e_wo_entrp">   -190.47445845 </i>
    <i name="e_0_energy">   -190.57560962 </i>
   </energy>
  </scstep>
  <scstep>
   <time name="dav">   28.38   28.45</time>
   <time name="total">   28.89   28.97</time>
   <energy>
    <i name="e_fr_energy">   -190.67435004 </i>
    <i name="e_wo_entrp">   -190.47190072 </i>
    <i name="e_0_energy">   -190.57312538 </i>
   </energy>
  </scstep>
  <scstep>
   <time name="dav">   26.42   26.48</time>
   <time name="total">   26.94   27.01</time>
   <energy>
    <i name="e_fr_energy">   -190.67463043 </i>
    <i name="e_wo_entrp">   -190.47189846 </i>
    <i name="e_0_energy">   -190.57326444 </i>
   </energy>
  </scstep>
  <scstep>
   <time name="dav">   26.52   26.59</time>
   <time name="total">   27.03   27.11</time>
   <energy>
    <i name="e_fr_energy">   -190.67447727 </i>
    <i name="e_wo_entrp">   -190.47197123 </i>
    <i name="e_0_energy">   -190.57322425 </i>
   </energy>
  </scstep>
  <scstep>
   <time name="dav">   19.94   19.99</time>
   <time name="total">   19.97   20.03</time>
   <energy>
    <i name="alphaZ">     85.82669757 </i>
    <i name="ewald">  42833.77932569 </i>
    <i name="hartreedc"> -48821.97627548 </i>
    <i name="XCdc">   -234.30708651 </i>
    <i name="pawpsdc">   4062.80046024 </i>
    <i name="pawaedc">  -3478.66429195 </i>
    <i name="eentropy">     -0.20252415 </i>
    <i name="bandstr">  -1399.37329997 </i>
    <i name="atom">   6761.44252427 </i>
    <i name="e_fr_energy">   -190.67447028 </i>
    <i name="e_wo_entrp">   -190.47194613 </i>
    <i name="e_0_energy">   -190.57320821 </i>
   </energy>
  </scstep>
  <structure>
   <crystal>
    <varray name="basis" >
     <v>       8.48726153       4.89821149       0.00000000 </v>
     <v>      -8.48733641       4.89835977       0.00000000 </v>
     <v>       0.00000000       0.00000000      30.00000000 </v>
    </varray>
    <i name="volume">   2494.39287536 </i>
    <varray name="rec_basis" >
     <v>       0.05891245       0.10207698       0.00000000 </v>
     <v>      -0.05891067       0.10207608       0.00000000 </v>
     <v>       0.00000000       0.00000000       0.03333333 </v>
    </varray>
   </crystal>
   <varray name="positions" >
    <v>      -0.00033602       0.66963186      -0.00015202 </v>
    <v>       0.33116235      -0.00273592       0.00020855 </v>
    <v>       0.66646306      -0.00538010       0.00013334 </v>
    <v>      -0.00328622      -0.00190496       0.00018436 </v>
    <v>       0.66535456       0.66804691      -0.00015086 </v>
    <v>       0.33589893       0.66318494      -0.00016443 </v>
    <v>       1.00530427       0.33340175      -0.00006863 </v>
    <v>       0.33284778       0.33819762       0.00004692 </v>
    <v>       0.66606517       0.33686075      -0.00000929 </v>
    <v>       0.11172907       0.22308784       0.94909033 </v>
    <v>       0.22574249       0.10938805       0.04901378 </v>
    <v>       0.10742364       0.55728383       0.95082856 </v>
    <v>       0.22155564       0.44315014       0.05148585 </v>
    <v>       0.11355260       0.88582862       0.95162350 </v>
    <v>       0.21959045       0.78030969       0.04793429 </v>
    <v>       0.44196210       0.21764287       0.95084328 </v>
    <v>       0.55360459       0.10682415       0.04768098 </v>
    <v>       0.44402184       0.55426322       0.94855620 </v>
    <v>       0.55481847       0.44333459       0.05090352 </v>
    <v>       0.44696757       0.89426454       0.95201016 </v>
    <v>       0.55853748       0.78386303       0.05001893 </v>
    <v>       0.77533309       0.21763000       0.95130429 </v>
    <v>       0.88333583       0.10931960       0.04961733 </v>
    <v>       0.78298532       0.55745236       0.95034411 </v>
    <v>       0.89126028       0.44889123       0.04912709 </v>
    <v>       0.77455356       0.89176774       0.95004720 </v>
    <v>       0.89176654       0.77461011       0.04954256 </v>
   </varray>
  </structure>
  <varray name="forces" >
   <v>      -0.26693751      -0.02275923       0.04798927 </v>
   <v>       0.01864401      -0.10107212       0.04723293 </v>
   <v>       0.33065730      -0.16784710      -0.05087492 </v>
   <v>      -0.17479229      -0.15953684       0.03045080 </v>
   <v>      -0.09291639      -0.12848075       0.02214507 </v>
   <v>       0.57710470      -0.21706368      -0.00646988 </v>
   <v>       0.49576136       0.32371579      -0.04606747 </v>
   <v>      -0.47616238       0.23785194      -0.00948424 </v>
   <v>      -0.38335146       0.09801965      -0.03002231 </v>
   <v>       0.07381492      -0.01166514      -0.40179312 </v>
   <v>      -0.01825868       0.01809293       0.19558864 </v>
   <v>       0.00133209       0.04035394      -0.25470485 </v>
   <v>      -0.00681979       0.02528376       0.61298593 </v>
   <v>       0.00143627      -0.00566557      -0.36906015 </v>
   <v>       0.05043997      -0.00775570       0.20902945 </v>
   <v>      -0.03987965      -0.03708887      -0.20499392 </v>
   <v>       0.01245000      -0.00737579       0.17268562 </v>
   <v>       0.03472790       0.03758323      -0.60828634 </v>
   <v>      -0.06528198       0.01768136       0.40665855 </v>
   <v>       0.04689486      -0.01682967      -0.24466722 </v>
   <v>      -0.01345303       0.01882902       0.47225609 </v>
   <v>       0.01367248      -0.00966448      -0.01876651 </v>
   <v>      -0.05117233      -0.03472171       0.37593469 </v>
   <v>      -0.04193785       0.08720431      -0.40625457 </v>
   <v>       0.01115292       0.05735215       0.15085055 </v>
   <v>      -0.03674462      -0.02414706      -0.45814789 </v>
   <v>      -0.00038081      -0.01029435       0.36578579 </v>
  </varray>
  <varray name="stress" >
   <v>      -5.74970016       0.01117855      -0.13509665 </v>
   <v>       0.01117855      -5.97113725       0.01333171 </v>
   <v>      -0.13509684       0.01333159       4.48281753 </v>
  </varray>
  <energy>
   <i name="e_fr_energy">   -190.67447028 </i>
   <i name="e_wo_entrp">   -190.57320821 </i>
   <i name="e_0_energy">     -0.20252415 </i>
  </energy>
  <time name="totalsc">  382.68  383.68</time>
 </calculation>
 <calculation>
  <scstep>
   <time name="dav">   21.68   21.74</time>
   <time name="total">   22.19   22.24</time>
   <energy>
    <i name="alphaZ">     90.30954233 </i>
    <i name="ewald">  44733.79080944 </i>
    <i name="hartreedc"> -50778.43956843 </i>
    <i name="XCdc">   -231.72160316 </i>
    <i name="pawpsdc">   4062.74932989 </i>
    <i name="pawaedc">  -3478.60811236 </i>
    <i name="eentropy">     -0.17959990 </i>
    <i name="bandstr">  -1351.46473881 </i>
    <i name="atom">   6761.44252427 </i>
    <i name="e_fr_energy">   -192.12141672 </i>
    <i name="e_wo_entrp">   -191.94181683 </i>
    <i name="e_0_energy">   -192.03161678 </i>
   </energy>
  </scstep>
  <scstep>
   <time name="dav">   29.70   29.78</time>
   <time name="total">   30.20   30.28</time>
   <energy>
    <i name="e_fr_energy">   -191.86645372 </i>
    <i name="e_wo_entrp">   -191.67516715 </i>
    <i name="e_0_energy">   -191.77081044 </i>
   </energy>
  </scstep>
  <scstep>
   <time name="dav">   29.94   30.01</time>
   <time name="total">   30.44   30.52</time>
   <energy>
    <i name="e_fr_energy">   -192.25027074 </i>
    <i name="e_wo_entrp">   -192.04822041 </i>
    <i name="e_0_energy">   -192.14924558 </i>
   </energy>
  </scstep>
  <scstep>
   <time name="dav">   29.92   30.00</time>
   <time name="total">   30.43   30.51</time>
   <energy>
    <i name="e_fr_energy">   -191.57737081 </i>
    <i name="e_wo_entrp">   -191.38950588 </i>
    <i name="e_0_energy">   -191.48343835 </i>
   </energy>
  </scstep>
  <scstep>
   <time name="dav">   30.21   30.28</time>
   <time name="total">   30.72   30.80</time>
   <energy>
    <i name="e_fr_energy">   -191.41688891 </i>
    <i name="e_wo_entrp">   -191.23298728 </i>
    <i name="e_0_energy">   -191.32493809 </i>
   </energy>
  </scstep>
  <scstep>
   <time name="dav">   30.44   30.52</time>
   <time name="total">   30.95   31.03</time>
   <energy>
    <i name="e_fr_energy">   -191.36389281 </i>
    <i name="e_wo_entrp">   -191.17119941 </i>
    <i name="e_0_energy">   -191.26754611 </i>
   </energy>
  </scstep>
  <scstep>
   <time name="dav">   30.11   30.18</time>
   <time name="total">   30.62   30.70</time>
   <energy>
    <i name="e_fr_energy">   -191.34661251 </i>
    <i name="e_wo_entrp">   -191.16001210 </i>
    <i name="e_0_energy">   -191.25331231 </i>
   </energy>
  </scstep>
  <scstep>
   <time name="dav">   26.81   26.87</time>
   <time name="total">   27.31   27.38</time>
   <energy>
    <i name="e_fr_energy">   -191.33992222 </i>
    <i name="e_wo_entrp">   -191.15197356 </i>
    <i name="e_0_energy">   -191.24594789 </i>
   </energy>
  </scstep>
  <scstep>
   <time name="dav">   30.46   30.53</time>
   <time name="total">   30.96   31.04</time>
   <energy>
    <i name="e_fr_energy">   -191.34142447 </i>
    <i name="e_wo_entrp">   -191.15319999 </i>
    <i name="e_0_energy">   -191.24731223 </i>
   </energy>
  </scstep>
  <scstep>
   <time name="dav">   28.70   28.77</time>
   <time name="total">   29.20   29.28</time>
   <energy>
    <i name="e_fr_energy">   -191.34025307 </i>
    <i name="e_wo_entrp">   -191.15204797 </i>
    <i name="e_0_energy">   -191.24615052 </i>
   </energy>
  </scstep>
  <scstep>
   <time name="dav">   25.96   26.02</time>
   <time name="total">   26.46   26.53</time>
   <energy>
    <i name="e_fr_energy">   -191.34008121 </i>
    <i name="e_wo_entrp">   -191.15182339 </i>
    <i name="e_0_energy">   -191.24595230 </i>
   </energy>
  </scstep>
  <scstep>
   <time name="dav">   20.66   20.71</time>
   <time name="total">   20.70   20.77</time>
   <energy>
    <i name="alphaZ">     90.30954233 </i>
    <i name="ewald">  44733.79080944 </i>
    <i name="hartreedc"> -50743.44768244 </i>
    <i name="XCdc">   -233.30524255 </i>
    <i name="pawpsdc">   4086.56250640 </i>
    <i name="pawaedc">  -3502.52823415 </i>
    <i name="eentropy">     -0.18821833 </i>
    <i name="bandstr">  -1383.97605182 </i>
    <i name="atom">   6761.44252427 </i>
    <i name="e_fr_energy">   -191.34004683 </i>
    <i name="e_wo_entrp">   -191.15182851 </i>
    <i name="e_0_energy">   -191.24593767 </i>
   </energy>
  </scstep>
  <structure>
   <crystal>
    <varray name="basis" >
     <v>       8.27838480       4.77202638       0.00000000 </v>
     <v>      -8.27888941       4.77292057       0.00000000 </v>
     <v>       0.00000000       0.00000000      30.00000000 </v>
    </varray>
    <i name="volume">   2370.57455284 </i>
    <varray name="rec_basis" >
     <v>       0.06040207       0.10477067       0.00000000 </v>
     <v>      -0.06039076       0.10476428       0.00000000 </v>
     <v>       0.00000000       0.00000000       0.03333333 </v>
    </varray>
   </crystal>
   <varray name="positions" >
    <v>      -0.00253537       0.67116437       0.00004135 </v>
    <v>       0.33001494      -0.00402006       0.00041314 </v>
    <v>       0.66685308      -0.00975181      -0.00006689 </v>
    <v>      -0.00644050      -0.00246140       0.00032532 </v>
    <v>       0.66302373       0.66701830      -0.00005257 </v>
    <v>       0.33728296       0.65616240      -0.00020734 </v>
    <v>       1.01281300       0.33384104      -0.00029176 </v>
    <v>       0.33234321       0.34453561       0.00001479 </v>
    <v>       0.66461767       0.34084574      -0.00012860 </v>
    <v>       0.11198208       0.22227339       0.94683452 </v>
    <v>       0.22597216       0.10931063       0.05035852 </v>
    <v>       0.10775651       0.55814563       0.94924052 </v>
    <v>       0.22191809       0.44367843       0.05461244 </v>
    <v>       0.11372413       0.88554252       0.94963134 </v>
    <v>       0.21963123       0.78008866       0.04926845 </v>
    <v>       0.44092256       0.21685706       0.94944599 </v>
    <v>       0.55327900       0.10604446       0.04886741 </v>
    <v>       0.44479759       0.55465370       0.94545942 </v>
    <v>       0.55469429       0.44417766       0.05318438 </v>
    <v>       0.44732780       0.89424747       0.95051895 </v>
    <v>       0.55893353       0.78466833       0.05252289 </v>
    <v>       0.77498042       0.21683408       0.95065246 </v>
    <v>       0.88202048       0.10882604       0.05171228 </v>
    <v>       0.78428207       0.55920904       0.94813552 </v>
    <v>       0.89235735       0.45010804       0.05032806 </v>
    <v>       0.77380346       0.89200342       0.94759269 </v>
    <v>       0.89185897       0.77421172       0.05158665 </v>
   </varray>
  </structure>
  <varray name="forces" >
   <v>      -0.38876173      -0.06435521       0.01463401 </v>
   <v>       0.10013170      -0.05031329       0.05433434 </v>
   <v>       0.28269536      -0.19470221      -0.01064671 </v>
   <v>      -0.10241163      -0.14940185      -0.02250395 </v>
   <v>       0.07131161      -0.05492446      -0.03370016 </v>
   <v>       0.27449082      -0.11796807       0.01617057 </v>
   <v>       0.42526976       0.28126289       0.04795606 </v>
   <v>      -0.20204668       0.19820179      -0.06016022 </v>
   <v>      -0.51400727       0.01191963      -0.04210479 </v>
   <v>       0.17043321       0.01398053      -0.16810510 </v>
   <v>      -0.17178905       0.04979474      -0.11662767 </v>
   <v>       0.12702723       0.08415705       0.06924625 </v>
   <v>       0.01165961       0.02858368       0.37123097 </v>
   <v>      -0.08934921      -0.02160591      -0.04274788 </v>
   <v>       0.18340802      -0.05379248      -0.07771580 </v>
   <v>      -0.16941851       0.01356675       0.01063932 </v>
   <v>       0.01004108       0.07074131      -0.09107509 </v>
   <v>       0.05711622       0.07505741      -0.29527506 </v>
   <v>      -0.12551821      -0.01718143       0.20671247 </v>
   <v>       0.13871417      -0.15333876       0.00373247 </v>
   <v>       0.05234910      -0.11002506       0.13448217 </v>
   <v>      -0.00505251       0.13964825       0.30468044 </v>
   <v>      -0.02316911       0.05625168       0.06684950 </v>
   <v>      -0.11764823       0.05148013      -0.15024194 </v>
   <v>       0.08258485      -0.01014944      -0.17511507 </v>
   <v>       0.05467946      -0.05843514      -0.13502526 </v>
   <v>      -0.13274007      -0.01845257       0.12037612 </v>
  </varray>
  <varray name="stress" >
   <v>       0.39184196      -0.07671976      -0.31374466 </v>
   <v>      -0.07671982      -0.07698190      -0.16475721 </v>
   <v>      -0.31374473      -0.16475718      -0.23830164 </v>
  </varray>
  <energy>
   <i name="e_fr_energy">   -191.34004683 </i>
   <i name="e_wo_entrp">   -191.24593767 </i>
   <i name="e_0_energy">     -0.18821833 </i>
  </energy>
  <time name="totalsc">  382.26  383.29</time>
 </calculation>
 <calculation>
  <scstep>
   <time name="dav">   21.71   21.77</time>
   <time name="total">   22.22   22.28</time>
   <energy>
    <i name="alphaZ">     90.17101556 </i>
    <i name="ewald">  44651.72331776 </i>
    <i name="hartreedc"> -50660.54925076 </i>
    <i name="XCdc">   -233.48063613 </i>
    <i name="pawpsdc">   4086.45112526 </i>
    <i name="pawaedc">  -3502.41163469 </i>
    <i name="eentropy">     -0.19001721 </i>
    <i name="bandstr">  -1384.57123179 </i>
    <i name="atom">   6761.44252427 </i>
    <i name="e_fr_energy">   -191.41478773 </i>
    <i name="e_wo_entrp">   -191.22477052 </i>
    <i name="e_0_energy">   -191.31977912 </i>
   </energy>
  </scstep>
  <scstep>
   <time name="dav">   32.88   32.96</time>
   <time name="total">   33.38   33.47</time>
   <energy>
    <i name="e_fr_energy">   -191.47659037 </i>
    <i name="e_wo_entrp">   -191.27647425 </i>
    <i name="e_0_energy">   -191.37653231 </i>
   </energy>
  </scstep>
  <scstep>
   <time name="dav">   30.39   30.46</time>
   <time name="total">   30.89   30.97</time>
   <energy>
    <i name="e_fr_energy">   -191.42605750 </i>
    <i name="e_wo_entrp">   -191.23536411 </i>
    <i name="e_0_energy">   -191.33071081 </i>
   </energy>
  </scstep>
  <scstep>
   <time name="dav">   28.91   28.98</time>
   <time name="total">   29.41   29.49</time>
   <energy>
    <i name="e_fr_energy">   -191.42713610 </i>
    <i name="e_wo_entrp">   -191.23530986 </i>
    <i name="e_0_energy">   -191.33122298 </i>
   </energy>
  </scstep>
  <scstep>
   <time name="dav">   29.74   29.81</time>
   <time name="total">   30.25   30.33</time>
   <energy>
    <i name="e_fr_energy">   -191.42284836 </i>
    <i name="e_wo_entrp">   -191.23103237 </i>
    <i name="e_0_energy">   -191.32694036 </i>
   </energy>
  </scstep>
  <scstep>
   <time name="dav">   27.38   27.45</time>
   <time name="total">   27.89   27.96</time>
   <energy>
    <i name="e_fr_energy">   -191.42252908 </i>
    <i name="e_wo_entrp">   -191.23069342 </i>
    <i name="e_0_energy">   -191.32661125 </i>
   </energy>
  </scstep>
  <scstep>
   <time name="dav">   26.28   26.34</time>
   <time name="total">   26.78   26.85</time>
   <energy>
    <i name="e_fr_energy">   -191.42227786 </i>
    <i name="e_wo_entrp">   -191.23044566 </i>
    <i name="e_0_energy">   -191.32636176 </i>
   </energy>
  </scstep>
  <scstep>
   <time name="dav">   19.06   19.10</time>
   <time name="total">   19.09   19.15</time>
   <energy>
    <i name="alphaZ">     90.17101556 </i>
    <i name="ewald">  44651.72331776 </i>
    <i name="hartreedc"> -50662.59889825 </i>
    <i name="XCdc">   -233.40854697 </i>
    <i name="pawpsdc">   4083.34563357 </i>
    <i name="pawaedc">  -3499.26033248 </i>
    <i name="eentropy">     -0.19168569 </i>
    <i name="bandstr">  -1382.64524511 </i>
    <i name="atom">   6761.44252427 </i>
    <i name="e_fr_energy">   -191.42221733 </i>
    <i name="e_wo_entrp">   -191.23053164 </i>
    <i name="e_0_energy">   -191.32637449 </i>
   </energy>
  </scstep>
  <structure>
   <crystal>
    <varray name="basis" >
     <v>       8.28866550       4.77131912       0.00000000 </v>
     <v>      -8.29099781       4.77538271       0.00000000 </v>
     <v>       0.00000000       0.00000000      30.00000000 </v>
    </varray>
    <i name="volume">   2374.21638891 </i>
    <varray name="rec_basis" >
     <v>       0.06034053       0.10476296       0.00000000 </v>
     <v>      -0.06028919       0.10473349       0.00000000 </v>
     <v>       0.00000000       0.00000000       0.03333333 </v>
    </varray>
   </crystal>
   <varray name="positions" >
    <v>      -0.00388006       0.67190282       0.00005919 </v>
    <v>       0.33007949      -0.00451400       0.00049172 </v>
    <v>       0.66668800      -0.01137985      -0.00007850 </v>
    <v>      -0.00737499      -0.00288865       0.00028686 </v>
    <v>       0.66301512       0.66657956      -0.00010711 </v>
    <v>       0.33744519       0.65499885      -0.00018108 </v>
    <v>       1.01518216       0.33400582      -0.00021171 </v>
    <v>       0.33275257       0.34590605      -0.00007733 </v>
    <v>       0.66327285       0.34224189      -0.00019066 </v>
    <v>       0.11252220       0.22188711       0.94664071 </v>
    <v>       0.22572556       0.11004107       0.05013667 </v>
    <v>       0.10851435       0.55817149       0.94939531 </v>
    <v>       0.22207880       0.44376879       0.05509798 </v>
    <v>       0.11336166       0.88569782       0.94962233 </v>
    <v>       0.21988572       0.77931686       0.04910795 </v>
    <v>       0.44054502       0.21742550       0.94950586 </v>
    <v>       0.55366329       0.10638819       0.04868993 </v>
    <v>       0.44530116       0.55484561       0.94509015 </v>
    <v>       0.55426117       0.44442194       0.05343705 </v>
    <v>       0.44695945       0.89310823       0.95056938 </v>
    <v>       0.55853248       0.78396113       0.05265934 </v>
    <v>       0.77565740       0.21755414       0.95114778 </v>
    <v>       0.88226911       0.10918257       0.05175474 </v>
    <v>       0.78416266       0.55973828       0.94796705 </v>
    <v>       0.89250712       0.44978870       0.05001891 </v>
    <v>       0.77369441       0.89155710       0.94745431 </v>
    <v>       0.89139257       0.77450744       0.05171309 </v>
   </varray>
  </structure>
  <varray name="forces" >
   <v>      -0.42101841      -0.04765242       0.02206874 </v>
   <v>       0.15276524      -0.06151028       0.10003707 </v>
   <v>       0.29753722      -0.25247124      -0.00124720 </v>
   <v>      -0.12103189      -0.17962029      -0.00321716 </v>
   <v>       0.08601927      -0.03370445      -0.01118716 </v>
   <v>       0.32119549      -0.09639688       0.00298754 </v>
   <v>       0.50514013       0.30137517       0.00037835 </v>
   <v>      -0.22542903       0.23273130      -0.01301936 </v>
   <v>      -0.61090612      -0.01647923      -0.02712385 </v>
   <v>       0.12002054       0.01776638      -0.10350195 </v>
   <v>      -0.10991764       0.03903581      -0.16503773 </v>
   <v>       0.07596069       0.04149156       0.11215416 </v>
   <v>       0.04446624       0.03232635       0.27503203 </v>
   <v>      -0.05483260      -0.01898701      -0.02221225 </v>
   <v>       0.11018751      -0.05386697      -0.10643716 </v>
   <v>      -0.11392377       0.00044419      -0.01691233 </v>
   <v>       0.00838937       0.07115032      -0.13938688 </v>
   <v>       0.03459225       0.06865853      -0.22128478 </v>
   <v>      -0.09682997      -0.00459074       0.19141219 </v>
   <v>       0.09259226      -0.09158993       0.01121064 </v>
   <v>       0.05167821      -0.05678152       0.11452934 </v>
   <v>      -0.03261427       0.11481640       0.37188119 </v>
   <v>      -0.01974505       0.02926104       0.03554754 </v>
   <v>      -0.07799038       0.04264812      -0.16470602 </v>
   <v>       0.05378318      -0.02326743      -0.22278856 </v>
   <v>       0.02280818      -0.04684834      -0.13226437 </v>
   <v>      -0.09289665      -0.00793843       0.11308796 </v>
  </varray>
  <varray name="stress" >
   <v>      -0.12725661       0.01029623      -0.12940671 </v>
   <v>       0.01029620      -0.25740968      -0.11035412 </v>
   <v>      -0.12940692      -0.11035413      -0.92142676 </v>
  </varray>
  <energy>
   <i name="e_fr_energy">   -191.42221733 </i>
   <i name="e_wo_entrp">   -191.32637449 </i>
   <i name="e_0_energy">     -0.19168569 </i>
  </energy>
  <time name="totalsc">  262.21  262.92</time>
 </calculation>
 <calculation>
  <scstep>
   <time name="dav">   21.92   21.97</time>
   <time name="total">   22.43   22.48</time>
   <energy>
    <i name="alphaZ">     90.18025745 </i>
    <i name="ewald">  44655.57280802 </i>
    <i name="hartreedc"> -50666.58332996 </i>
    <i name="XCdc">   -233.40421092 </i>
    <i name="pawpsdc">   4083.27553521 </i>
    <i name="pawaedc">  -3499.18922074 </i>
    <i name="eentropy">     -0.19160901 </i>
    <i name="bandstr">  -1382.53276565 </i>
    <i name="atom">   6761.44252427 </i>
    <i name="e_fr_energy">   -191.43001132 </i>
    <i name="e_wo_entrp">   -191.23840231 </i>
    <i name="e_0_energy">   -191.33420681 </i>
   </energy>
  </scstep>
  <scstep>
   <time name="dav">   30.70   30.77</time>
   <time name="total">   31.20   31.29</time>
   <energy>
    <i name="e_fr_energy">   -191.43079000 </i>
    <i name="e_wo_entrp">   -191.23832901 </i>
    <i name="e_0_energy">   -191.33455950 </i>
   </energy>
  </scstep>
  <scstep>
   <time name="dav">   24.64   24.70</time>
   <time name="total">   25.14   25.21</time>
   <energy>
    <i name="e_fr_energy">   -191.43006318 </i>
    <i name="e_wo_entrp">   -191.23830712 </i>
    <i name="e_0_energy">   -191.33418515 </i>
   </energy>
  </scstep>
  <scstep>
   <time name="dav">   17.39   17.43</time>
   <time name="total">   17.43   17.48</time>
   <energy>
    <i name="alphaZ">     90.18025745 </i>
    <i name="ewald">  44655.57280802 </i>
    <i name="hartreedc"> -50666.67814389 </i>
    <i name="XCdc">   -233.40519520 </i>
    <i name="pawpsdc">   4083.12464983 </i>
    <i name="pawaedc">  -3499.03926450 </i>
    <i name="eentropy">     -0.19163700 </i>
    <i name="bandstr">  -1382.43610299 </i>
    <i name="atom">   6761.44252427 </i>
    <i name="e_fr_energy">   -191.43010400 </i>
    <i name="e_wo_entrp">   -191.23846700 </i>
    <i name="e_0_energy">   -191.33428550 </i>
   </energy>
  </scstep>
  <structure>
   <crystal>
    <varray name="basis" >
     <v>       8.28836890       4.77101966       0.00000000 </v>
     <v>      -8.29068488       4.77505475       0.00000000 </v>
     <v>       0.00000000       0.00000000      30.00000000 </v>
    </varray>
    <i name="volume">   2373.97307325 </i>
    <varray name="rec_basis" >
     <v>       0.06034257       0.10476974       0.00000000 </v>
     <v>      -0.06029158       0.10474047       0.00000000 </v>
     <v>       0.00000000       0.00000000       0.03333333 </v>
    </varray>
   </crystal>
   <varray name="positions" >
    <v>      -0.00399675       0.67198085       0.00006212 </v>
    <v>       0.33008886      -0.00457387       0.00050439 </v>
[...]
      <set comment="kpoint 31">
       <r>  -17.5817    1.0000 </r>
       <r>  -17.1871    1.0000 </r>
       <r>  -16.9591    1.0000 </r>
       <r>  -16.6364    1.0000 </r>
       <r>  -16.5300    1.0000 </r>
       <r>  -16.3933    1.0000 </r>
       <r>  -16.3313    1.0000 </r>
       <r>  -16.1598    1.0000 </r>
       <r>  -16.0884    1.0000 </r>
       <r>  -16.0280    1.0000 </r>
       <r>  -15.9602    1.0000 </r>
       <r>  -15.8853    1.0000 </r>
       <r>  -15.7726    1.0000 </r>
       <r>  -15.7098    1.0000 </r>
       <r>  -15.6283    1.0000 </r>
       <r>  -15.5514    1.0000 </r>
       <r>  -15.3506    1.0000 </r>
       <r>  -15.2629    1.0000 </r>
       <r>   -9.7385    1.0000 </r>
       <r>   -9.4792    1.0000 </r>
       <r>   -9.2615    1.0000 </r>
       <r>   -9.0277    1.0000 </r>
       <r>   -8.8573    1.0000 </r>
       <r>   -8.7538    1.0000 </r>
       <r>   -8.6478    1.0000 </r>
       <r>   -8.4378    1.0000 </r>
       <r>   -8.3584    1.0000 </r>
       <r>   -8.3258    1.0000 </r>
       <r>   -8.2837    1.0000 </r>
       <r>   -8.1954    1.0000 </r>
       <r>   -8.1446    1.0000 </r>
       <r>   -8.0924    1.0000 </r>
       <r>   -7.9783    1.0000 </r>
       <r>   -7.8731    1.0000 </r>
       <r>   -7.7554    1.0000 </r>
       <r>   -7.6625    1.0000 </r>
       <r>   -7.5639    1.0000 </r>
       <r>   -7.4732    1.0000 </r>
       <r>   -7.3094    1.0000 </r>
       <r>   -7.2397    1.0000 </r>
       <r>   -7.1852    1.0000 </r>
       <r>   -7.0817    1.0000 </r>
       <r>   -7.0512    1.0000 </r>
       <r>   -6.9534    1.0000 </r>
       <r>   -6.8498    1.0000 </r>
       <r>   -6.7642    1.0000 </r>
       <r>   -6.7412    1.0000 </r>
       <r>   -6.5906    1.0000 </r>
       <r>   -6.5234    1.0000 </r>
       <r>   -6.4464    1.0000 </r>
       <r>   -6.3884    1.0000 </r>
       <r>   -6.3021    1.0000 </r>
       <r>   -6.2461    1.0000 </r>
       <r>   -6.1867    1.0000 </r>
       <r>   -6.1390    1.0000 </r>
       <r>   -6.0734    1.0000 </r>
       <r>   -5.9956    1.0000 </r>
       <r>   -5.8837    1.0000 </r>
       <r>   -5.8253    1.0000 </r>
       <r>   -5.7789    1.0000 </r>
       <r>   -5.7127    1.0000 </r>
       <r>   -5.6466    1.0000 </r>
       <r>   -5.5706    1.0000 </r>
       <r>   -5.3529    1.0000 </r>
       <r>   -5.2614    1.0000 </r>
       <r>   -5.2142    1.0000 </r>
       <r>   -5.0559    1.0000 </r>
       <r>   -4.9050    1.0000 </r>
       <r>   -4.8091    1.0000 </r>
       <r>   -4.7157    1.0000 </r>
       <r>   -4.5239    1.0000 </r>
       <r>   -4.3882    1.0000 </r>
       <r>   -4.3188    1.0000 </r>
       <r>   -4.1935    1.0000 </r>
       <r>   -4.0669    1.0000 </r>
       <r>   -4.0123    1.0000 </r>
       <r>   -3.8890    1.0000 </r>
       <r>   -3.6539    0.9957 </r>
       <r>   -3.6393    0.9942 </r>
       <r>   -3.2029    0.2882 </r>
       <r>   -2.9535    0.0101 </r>
       <r>   -2.8076    0.0004 </r>
       <r>   -2.6197    0.0000 </r>
       <r>   -2.5241    0.0000 </r>
       <r>   -2.4137    0.0000 </r>
       <r>   -2.2701    0.0000 </r>
       <r>   -2.1884    0.0000 </r>
       <r>   -2.1051    0.0000 </r>
       <r>   -2.0054    0.0000 </r>
       <r>   -1.9387    0.0000 </r>
       <r>   -1.7352    0.0000 </r>
       <r>   -1.6181    0.0000 </r>
       <r>   -1.4368    0.0000 </r>
       <r>   -1.3245    0.0000 </r>
       <r>   -1.2533    0.0000 </r>
       <r>   -1.1989    0.0000 </r>
       <r>   -1.1093    0.0000 </r>
       <r>   -1.0519    0.0000 </r>
       <r>   -0.9689    0.0000 </r>
       <r>   -0.9239    0.0000 </r>
       <r>   -0.8531    0.0000 </r>
       <r>   -0.7799    0.0000 </r>
       <r>   -0.6610    0.0000 </r>
       <r>   -0.4859    0.0000 </r>
       <r>   -0.4019    0.0000 </r>
       <r>   -0.3130    0.0000 </r>
       <r>   -0.1410    0.0000 </r>
       <r>   -0.0803    0.0000 </r>
       <r>    0.1031    0.0000 </r>
       <r>    0.1674    0.0000 </r>
       <r>    0.4239    0.0000 </r>
       <r>    0.5499    0.0000 </r>
       <r>    0.6543    0.0000 </r>
       <r>    0.7274    0.0000 </r>
       <r>    1.0825    0.0000 </r>
       <r>    1.2482    0.0000 </r>
       <r>    1.3593    0.0000 </r>
       <r>    2.1199    0.0000 </r>
       <r>    2.2785    0.0000 </r>
       <r>    2.3834    0.0000 </r>
      </set>
      <set comment="kpoint 32">
       <r>  -17.5718    1.0000 </r>
       <r>  -17.1692    1.0000 </r>
       <r>  -17.0472    1.0000 </r>
       <r>  -16.6367    1.0000 </r>
       <r>  -16.4022    1.0000 </r>
       <r>  -16.3739    1.0000 </r>
       <r>  -16.2946    1.0000 </r>
       <r>  -16.2285    1.0000 </r>
       <r>  -16.1289    1.0000 </r>
       <r>  -16.0142    1.0000 </r>
       <r>  -15.9686    1.0000 </r>
       <r>  -15.8888    1.0000 </r>
       <r>  -15.7911    1.0000 </r>
       <r>  -15.7483    1.0000 </r>
       <r>  -15.6146    1.0000 </r>
       <r>  -15.5307    1.0000 </r>
       <r>  -15.3594    1.0000 </r>
       <r>  -15.2500    1.0000 </r>
       <r>   -9.6504    1.0000 </r>
       <r>   -9.5909    1.0000 </r>
       <r>   -9.3494    1.0000 </r>
       <r>   -9.0067    1.0000 </r>
       <r>   -8.7737    1.0000 </r>
       <r>   -8.6264    1.0000 </r>
       <r>   -8.5568    1.0000 </r>
       <r>   -8.4728    1.0000 </r>
       <r>   -8.3883    1.0000 </r>
       <r>   -8.3678    1.0000 </r>
       <r>   -8.3038    1.0000 </r>
       <r>   -8.1985    1.0000 </r>
       <r>   -8.1246    1.0000 </r>
       <r>   -8.0953    1.0000 </r>
       <r>   -8.0470    1.0000 </r>
       <r>   -7.9007    1.0000 </r>
       <r>   -7.7928    1.0000 </r>
       <r>   -7.6177    1.0000 </r>
       <r>   -7.5109    1.0000 </r>
       <r>   -7.4377    1.0000 </r>
       <r>   -7.3516    1.0000 </r>
       <r>   -7.2653    1.0000 </r>
       <r>   -7.1829    1.0000 </r>
       <r>   -7.1005    1.0000 </r>
       <r>   -7.0416    1.0000 </r>
       <r>   -6.9544    1.0000 </r>
       <r>   -6.9099    1.0000 </r>
       <r>   -6.8444    1.0000 </r>
       <r>   -6.7556    1.0000 </r>
       <r>   -6.5878    1.0000 </r>
       <r>   -6.4469    1.0000 </r>
       <r>   -6.4440    1.0000 </r>
       <r>   -6.3716    1.0000 </r>
       <r>   -6.3440    1.0000 </r>
       <r>   -6.2444    1.0000 </r>
       <r>   -6.1972    1.0000 </r>
       <r>   -6.1200    1.0000 </r>
       <r>   -6.0974    1.0000 </r>
       <r>   -5.9431    1.0000 </r>
       <r>   -5.8999    1.0000 </r>
       <r>   -5.8311    1.0000 </r>
       <r>   -5.7785    1.0000 </r>
       <r>   -5.6811    1.0000 </r>
       <r>   -5.6141    1.0000 </r>
       <r>   -5.4695    1.0000 </r>
       <r>   -5.4079    1.0000 </r>
       <r>   -5.3586    1.0000 </r>
       <r>   -5.1376    1.0000 </r>
       <r>   -5.0591    1.0000 </r>
       <r>   -4.9599    1.0000 </r>
       <r>   -4.8193    1.0000 </r>
       <r>   -4.6655    1.0000 </r>
       <r>   -4.4943    1.0000 </r>
       <r>   -4.3701    1.0000 </r>
       <r>   -4.2872    1.0000 </r>
       <r>   -4.2226    1.0000 </r>
       <r>   -4.0962    1.0000 </r>
       <r>   -4.0705    1.0000 </r>
       <r>   -3.9648    1.0000 </r>
       <r>   -3.6695    0.9969 </r>
       <r>   -3.5415    0.9668 </r>
       <r>   -3.2653    0.4531 </r>
       <r>   -2.9910    0.0198 </r>
       <r>   -2.7681    0.0001 </r>
       <r>   -2.5690    0.0000 </r>
       <r>   -2.5082    0.0000 </r>
       <r>   -2.3340    0.0000 </r>
       <r>   -2.2554    0.0000 </r>
       <r>   -2.1563    0.0000 </r>
       <r>   -2.0993    0.0000 </r>
       <r>   -1.9603    0.0000 </r>
       <r>   -1.9163    0.0000 </r>
       <r>   -1.7950    0.0000 </r>
       <r>   -1.6208    0.0000 </r>
       <r>   -1.4759    0.0000 </r>
       <r>   -1.3887    0.0000 </r>
       <r>   -1.2605    0.0000 </r>
       <r>   -1.2215    0.0000 </r>
       <r>   -1.1202    0.0000 </r>
       <r>   -1.0573    0.0000 </r>
       <r>   -0.9779    0.0000 </r>
       <r>   -0.9523    0.0000 </r>
       <r>   -0.8560    0.0000 </r>
       <r>   -0.7685    0.0000 </r>
       <r>   -0.6019    0.0000 </r>
       <r>   -0.4707    0.0000 </r>
       <r>   -0.4155    0.0000 </r>
       <r>   -0.3564    0.0000 </r>
       <r>   -0.0930    0.0000 </r>
       <r>   -0.0188    0.0000 </r>
       <r>    0.0554    0.0000 </r>
       <r>    0.1827    0.0000 </r>
       <r>    0.4464    0.0000 </r>
       <r>    0.6193    0.0000 </r>
       <r>    0.6617    0.0000 </r>
       <r>    0.7738    0.0000 </r>
       <r>    1.0132    0.0000 </r>
       <r>    1.1910    0.0000 </r>
       <r>    1.2733    0.0000 </r>
       <r>    2.0845    0.0000 </r>
       <r>    2.2510    0.0000 </r>
       <r>    2.5564    0.0000 </r>
      </set>
      <set comment="kpoint 33">
       <r>  -17.5354    1.0000 </r>
       <r>  -17.3104    1.0000 </r>
       <r>  -16.8976    1.0000 </r>
       <r>  -16.6445    1.0000 </r>
       <r>  -16.4675    1.0000 </r>
       <r>  -16.3916    1.0000 </r>
       <r>  -16.2796    1.0000 </r>
       <r>  -16.2033    1.0000 </r>
       <r>  -16.1083    1.0000 </r>
       <r>  -16.0025    1.0000 </r>
       <r>  -15.9719    1.0000 </r>
       <r>  -15.8948    1.0000 </r>
       <r>  -15.7877    1.0000 </r>
       <r>  -15.7700    1.0000 </r>
       <r>  -15.6003    1.0000 </r>
       <r>  -15.5385    1.0000 </r>
       <r>  -15.3636    1.0000 </r>
       <r>  -15.2539    1.0000 </r>
       <r>   -9.7283    1.0000 </r>
       <r>   -9.4519    1.0000 </r>
       <r>   -9.3144    1.0000 </r>
       <r>   -9.0053    1.0000 </r>
       <r>   -8.8917    1.0000 </r>
       <r>   -8.7168    1.0000 </r>
       <r>   -8.5425    1.0000 </r>
       <r>   -8.4781    1.0000 </r>
       <r>   -8.4015    1.0000 </r>
       <r>   -8.3583    1.0000 </r>
       <r>   -8.2937    1.0000 </r>
       <r>   -8.1803    1.0000 </r>
       <r>   -8.1405    1.0000 </r>
       <r>   -8.0432    1.0000 </r>
       <r>   -7.9727    1.0000 </r>
       <r>   -7.8773    1.0000 </r>
       <r>   -7.7647    1.0000 </r>
       <r>   -7.6264    1.0000 </r>
       <r>   -7.5291    1.0000 </r>
       <r>   -7.4320    1.0000 </r>
       <r>   -7.3437    1.0000 </r>
       <r>   -7.2573    1.0000 </r>
       <r>   -7.1947    1.0000 </r>
       <r>   -7.1178    1.0000 </r>
       <r>   -7.0233    1.0000 </r>
       <r>   -6.9886    1.0000 </r>
       <r>   -6.8989    1.0000 </r>
       <r>   -6.8224    1.0000 </r>
       <r>   -6.7062    1.0000 </r>
       <r>   -6.5964    1.0000 </r>
       <r>   -6.4961    1.0000 </r>
       <r>   -6.4144    1.0000 </r>
       <r>   -6.3932    1.0000 </r>
       <r>   -6.3370    1.0000 </r>
       <r>   -6.2627    1.0000 </r>
       <r>   -6.1984    1.0000 </r>
       <r>   -6.1179    1.0000 </r>
       <r>   -6.0808    1.0000 </r>
       <r>   -6.0559    1.0000 </r>
       <r>   -5.9462    1.0000 </r>
       <r>   -5.8535    1.0000 </r>
       <r>   -5.8069    1.0000 </r>
       <r>   -5.7237    1.0000 </r>
       <r>   -5.6398    1.0000 </r>
       <r>   -5.5318    1.0000 </r>
       <r>   -5.4856    1.0000 </r>
       <r>   -5.2682    1.0000 </r>
       <r>   -5.0495    1.0000 </r>
       <r>   -4.9823    1.0000 </r>
       <r>   -4.8068    1.0000 </r>
       <r>   -4.7588    1.0000 </r>
       <r>   -4.6295    1.0000 </r>
       <r>   -4.4689    1.0000 </r>
       <r>   -4.4253    1.0000 </r>
       <r>   -4.3069    1.0000 </r>
       <r>   -4.1953    1.0000 </r>
       <r>   -4.1713    1.0000 </r>
       <r>   -4.0817    1.0000 </r>
       <r>   -4.0180    1.0000 </r>
       <r>   -3.7208    0.9990 </r>
       <r>   -3.5041    0.9419 </r>
       <r>   -3.2848    0.5080 </r>
       <r>   -3.0992    0.0982 </r>
       <r>   -2.6924    0.0000 </r>
       <r>   -2.5652    0.0000 </r>
       <r>   -2.4425    0.0000 </r>
       <r>   -2.2698    0.0000 </r>
       <r>   -2.2152    0.0000 </r>
       <r>   -2.1431    0.0000 </r>
       <r>   -2.0984    0.0000 </r>
       <r>   -1.9334    0.0000 </r>
       <r>   -1.9020    0.0000 </r>
       <r>   -1.8132    0.0000 </r>
       <r>   -1.6016    0.0000 </r>
       <r>   -1.5184    0.0000 </r>
       <r>   -1.4255    0.0000 </r>
       <r>   -1.2869    0.0000 </r>
       <r>   -1.2170    0.0000 </r>
       <r>   -1.1409    0.0000 </r>
       <r>   -1.0748    0.0000 </r>
       <r>   -1.0091    0.0000 </r>
       <r>   -0.9687    0.0000 </r>
       <r>   -0.8475    0.0000 </r>
       <r>   -0.7618    0.0000 </r>
       <r>   -0.5785    0.0000 </r>
       <r>   -0.5062    0.0000 </r>
       <r>   -0.4269    0.0000 </r>
       <r>   -0.3740    0.0000 </r>
       <r>   -0.1115    0.0000 </r>
       <r>    0.0160    0.0000 </r>
       <r>    0.1143    0.0000 </r>
       <r>    0.2149    0.0000 </r>
       <r>    0.4155    0.0000 </r>
       <r>    0.6349    0.0000 </r>
       <r>    0.7401    0.0000 </r>
       <r>    0.8119    0.0000 </r>
       <r>    0.9561    0.0000 </r>
       <r>    1.1809    0.0000 </r>
       <r>    1.2222    0.0000 </r>
       <r>    2.1129    0.0000 </r>
       <r>    2.2814    0.0000 </r>
       <r>    2.3638    0.0000 </r>
      </set>
      <set comment="kpoint 34">
       <r>  -17.4938    1.0000 </r>
       <r>  -17.3911    1.0000 </r>
       <r>  -16.7547    1.0000 </r>
       <r>  -16.6947    1.0000 </r>
       <r>  -16.5551    1.0000 </r>
       <r>  -16.3975    1.0000 </r>
       <r>  -16.2792    1.0000 </r>
       <r>  -16.2034    1.0000 </r>
       <r>  -16.0389    1.0000 </r>
       <r>  -16.0287    1.0000 </r>
       <r>  -15.9633    1.0000 </r>
       <r>  -15.8903    1.0000 </r>
       <r>  -15.8094    1.0000 </r>
       <r>  -15.7537    1.0000 </r>
       <r>  -15.5938    1.0000 </r>
       <r>  -15.5514    1.0000 </r>
       <r>  -15.3629    1.0000 </r>
       <r>  -15.2610    1.0000 </r>
       <r>   -9.7626    1.0000 </r>
       <r>   -9.3435    1.0000 </r>
       <r>   -9.2652    1.0000 </r>
       <r>   -9.0085    1.0000 </r>
       <r>   -8.9658    1.0000 </r>
       <r>   -8.8526    1.0000 </r>
       <r>   -8.5407    1.0000 </r>
       <r>   -8.5223    1.0000 </r>
       <r>   -8.3976    1.0000 </r>
       <r>   -8.2829    1.0000 </r>
       <r>   -8.2627    1.0000 </r>
       <r>   -8.2326    1.0000 </r>
       <r>   -8.1696    1.0000 </r>
       <r>   -7.9862    1.0000 </r>
       <r>   -7.9329    1.0000 </r>
       <r>   -7.8466    1.0000 </r>
       <r>   -7.7397    1.0000 </r>
       <r>   -7.6193    1.0000 </r>
       <r>   -7.5022    1.0000 </r>
       <r>   -7.4583    1.0000 </r>
       <r>   -7.3692    1.0000 </r>
       <r>   -7.2348    1.0000 </r>
       <r>   -7.2110    1.0000 </r>
       <r>   -7.1090    1.0000 </r>
       <r>   -7.0226    1.0000 </r>
       <r>   -7.0072    1.0000 </r>
       <r>   -6.9140    1.0000 </r>
       <r>   -6.7622    1.0000 </r>
       <r>   -6.6792    1.0000 </r>
       <r>   -6.5458    1.0000 </r>
       <r>   -6.5213    1.0000 </r>
       <r>   -6.4316    1.0000 </r>
       <r>   -6.4011    1.0000 </r>
       <r>   -6.3215    1.0000 </r>
       <r>   -6.2883    1.0000 </r>
       <r>   -6.2146    1.0000 </r>
       <r>   -6.1918    1.0000 </r>
       <r>   -6.1020    1.0000 </r>
       <r>   -6.0642    1.0000 </r>
       <r>   -6.0190    1.0000 </r>
       <r>   -5.8358    1.0000 </r>
       <r>   -5.7666    1.0000 </r>
       <r>   -5.7436    1.0000 </r>
       <r>   -5.6785    1.0000 </r>
       <r>   -5.5777    1.0000 </r>
       <r>   -5.5203    1.0000 </r>
       <r>   -5.2228    1.0000 </r>
       <r>   -5.0942    1.0000 </r>
       <r>   -4.7822    1.0000 </r>
       <r>   -4.7120    1.0000 </r>
       <r>   -4.6926    1.0000 </r>
       <r>   -4.6465    1.0000 </r>
       <r>   -4.5558    1.0000 </r>
       <r>   -4.4254    1.0000 </r>
       <r>   -4.3399    1.0000 </r>
       <r>   -4.2361    1.0000 </r>
       <r>   -4.1267    1.0000 </r>
       <r>   -4.0761    1.0000 </r>
       <r>   -4.0306    1.0000 </r>
       <r>   -3.7534    0.9996 </r>
       <r>   -3.5194    0.9534 </r>
       <r>   -3.2931    0.5315 </r>
       <r>   -3.1408    0.1591 </r>
       <r>   -2.6567    0.0000 </r>
       <r>   -2.5718    0.0000 </r>
       <r>   -2.4102    0.0000 </r>
       <r>   -2.2431    0.0000 </r>
       <r>   -2.1999    0.0000 </r>
       <r>   -2.1380    0.0000 </r>
       <r>   -2.1000    0.0000 </r>
       <r>   -1.9323    0.0000 </r>
       <r>   -1.9015    0.0000 </r>
       <r>   -1.8021    0.0000 </r>
       <r>   -1.5794    0.0000 </r>
       <r>   -1.5419    0.0000 </r>
       <r>   -1.4276    0.0000 </r>
       <r>   -1.3098    0.0000 </r>
       <r>   -1.2037    0.0000 </r>
       <r>   -1.1609    0.0000 </r>
       <r>   -1.0881    0.0000 </r>
       <r>   -1.0141    0.0000 </r>
       <r>   -0.9810    0.0000 </r>
       <r>   -0.8316    0.0000 </r>
       <r>   -0.7695    0.0000 </r>
       <r>   -0.6109    0.0000 </r>
       <r>   -0.4948    0.0000 </r>
       <r>   -0.4323    0.0000 </r>
       <r>   -0.3675    0.0000 </r>
       <r>   -0.1431    0.0000 </r>
       <r>    0.0276    0.0000 </r>
       <r>    0.1468    0.0000 </r>
       <r>    0.2480    0.0000 </r>
       <r>    0.3838    0.0000 </r>
       <r>    0.6305    0.0000 </r>
       <r>    0.7831    0.0000 </r>
       <r>    0.8400    0.0000 </r>
       <r>    0.9208    0.0000 </r>
       <r>    1.1686    0.0000 </r>
       <r>    1.2388    0.0000 </r>
       <r>    2.1906    0.0000 </r>
       <r>    2.2179    0.0000 </r>
       <r>    2.3628    0.0000 </r>
      </set>
     </set>
    </set>
   </array>
  </eigenvalues>
  <separator name="orbital magnetization" >
   <v name="MAGDIPOLOUT">      0.00000000      0.00000000      0.00000000</v>
  </separator>
 </calculation>
 <structure name="finalpos" >
  <crystal>
   <varray name="basis" >
    <v>       8.39333050       4.81521156       0.00000000 </v>
    <v>      -8.39265752       4.81381846       0.00000000 </v>
    <v>       0.00000000       0.00000000      30.00000000 </v>
   </varray>
   <i name="volume">   2424.49172381 </i>
   <varray name="rec_basis" >
    <v>       0.05956488       0.10384846       0.00000000 </v>
    <v>      -0.05958212       0.10385678       0.00000000 </v>
    <v>       0.00000000       0.00000000       0.03333333 </v>
   </varray>
  </crystal>
  <varray name="positions" >
   <v>      -0.01433246       0.69398095      -0.00206716 </v>
   <v>       0.30887806       0.01264193      -0.00216848 </v>
   <v>       0.67686954      -0.01224856      -0.00003949 </v>
   <v>      -0.00440758       0.00478645      -0.00092306 </v>
   <v>       0.67484257       0.69866759      -0.00095407 </v>
   <v>       0.35145643       0.64595124       0.00283887 </v>
   <v>       1.01197425       0.31981962       0.00023898 </v>
   <v>       0.30517425       0.32693829      -0.00084964 </v>
   <v>       0.68884346       0.31042477       0.00452380 </v>
   <v>       0.11075655       0.22165031       0.94253182 </v>
   <v>       0.21827878       0.11179778       0.05246715 </v>
   <v>       0.10884155       0.56143968       0.95682084 </v>
   <v>       0.22093290       0.43763004       0.05699729 </v>
   <v>       0.10758176       0.89225870       0.94615944 </v>
   <v>       0.21976409       0.78012214       0.04266530 </v>
   <v>       0.45018329       0.22384884       0.95216515 </v>
   <v>       0.54413366       0.09302087       0.04883647 </v>
   <v>       0.44941770       0.55089045       0.94652473 </v>
   <v>       0.55879215       0.44109563       0.04155413 </v>
   <v>       0.43947955       0.88899496       0.95752491 </v>
   <v>       0.56059225       0.78437923       0.05536976 </v>
   <v>       0.78035623       0.21090916       0.94827702 </v>
   <v>       0.88134565       0.10910275       0.05358994 </v>
   <v>       0.77825255       0.55286081       0.95198307 </v>
   <v>       0.90650021       0.45909279       0.04934467 </v>
   <v>       0.77566789       0.89503669       0.94389005 </v>
   <v>       0.88803919       0.78312136       0.05269839 </v>
  </varray>
 </structure>
</modeling>
