unknown system                          
           1
     8.859638    5.104412    0.000000
    -8.857991    5.101579    0.000000
     0.000000    0.000000   30.000000
   V    Mo   W    S 
   3   3   3  18
Direct configuration=     1
   0.00000000  0.66666669  0.00000000
   0.33333334  0.00000000  0.00000000
   0.66666669  0.00000000  0.00000000
   0.00000000  0.00000000  0.00000000
   0.66666669  0.66666669  0.00000000
   0.33333334  0.66666669  0.00000000
   1.00000000  0.33333334  0.00000000
   0.33333334  0.33333334  0.00000000
   0.66666669  0.33333334  0.00000000
   0.11068511  0.22244981  0.95539999
   0.22244981  0.11068511  0.04460000
   0.11068511  0.55578315  0.95539999
   0.22244981  0.44401845  0.04460000
   0.11068511  0.88911647  0.95539999
   0.22244981  0.77735180  0.04460000
   0.44401845  0.22244981  0.95539999
   0.55578315  0.11068511  0.04460000
   0.44401845  0.55578315  0.95539999
   0.55578315  0.44401845  0.04460000
   0.44401845  0.88911647  0.95539999
   0.55578315  0.77735180  0.04460000
   0.77735180  0.22244981  0.95539999
   0.88911647  0.11068511  0.04460000
   0.77735180  0.55578315  0.95539999
   0.88911647  0.44401845  0.04460000
   0.77735180  0.88911647  0.95539999
   0.88911647  0.77735180  0.04460000
unknown system                          
           1
     8.670542    4.998002    0.000000
    -8.668765    4.994941    0.000000
     0.000000    0.000000   30.000000
   V    Mo   W    S 
   3   3   3  18
Direct configuration=     2
   0.00032492  0.66823520 -0.00016288
   0.33230350 -0.00153099  0.00001529
   0.66631515 -0.00234441  0.00014927
  -0.00130323 -0.00141006  0.00000268
   0.66665802  0.66805461 -0.00015583
   0.33464488  0.66690955 -0.00001450
   1.00134519  0.33332807  0.00016253
   0.33324817  0.33465064  0.00003364
   0.66656081  0.33443019  0.00003791
   0.11159566  0.22287739  0.95071931
   0.22502868  0.10962022  0.04793603
   0.10806002  0.55701464  0.95202270
   0.22156355  0.44341890  0.04934949
   0.11308469  0.88643854  0.95300288
   0.21997784  0.77984790  0.04694172
   0.44257993  0.21843738  0.95191766
   0.55401873  0.10750958  0.04686698
   0.44397631  0.55447997  0.95071798
   0.55490226  0.44343029  0.04924151
   0.44628068  0.89318242  0.95311734
   0.55768124  0.78232901  0.04811633
   0.77587759  0.21840424  0.95198908
   0.88463765  0.10976269  0.04809068
   0.78178699  0.55675546  0.95189214
   0.89055375  0.44796316  0.04806043
   0.77528095  0.89109213  0.95196189
   0.89123051  0.77532773  0.04798763
unknown system                          
           1
     8.487262    4.898211    0.000000
    -8.487336    4.898360    0.000000
     0.000000    0.000000   30.000000
   V    Mo   W    S 
   3   3   3  18
Direct configuration=     3
   0.00030152  0.66864058 -0.00017662
   0.33202391 -0.00189598  0.00005664
   0.66626978 -0.00305126  0.00015905
  -0.00175171 -0.00163219  0.00004338
   0.66645829  0.66820671 -0.00016830
   0.33498987  0.66636887 -0.00005372
   1.00207108  0.33332860  0.00012307
   0.33318093  0.33532069  0.00003770
   0.66647455  0.33490013  0.00003111
   0.11169505  0.22311043  0.95072108
   0.22518023  0.10979702  0.04786919
   0.10790699  0.55681317  0.95207351
   0.22146992  0.44317788  0.04943628
   0.11309925  0.88636946  0.95299185
   0.21996748  0.77989442  0.04688358
   0.44263027  0.21858597  0.95199903
   0.55409097  0.10768904  0.04675993
   0.44388409  0.55426616  0.95061315
   0.55481230  0.44322633  0.04924595
   0.44635386  0.89325963  0.95315712
   0.55779605  0.78251884  0.04820960
   0.77591065  0.21854170  0.95214323
   0.88460270  0.10990210  0.04810050
   0.78178889  0.55661872  0.95188010
   0.89052247  0.44783640  0.04798140
   0.77520348  0.89115040  0.95186419
   0.89128161  0.77527063  0.04801790
unknown system                          
           1
     8.278385    4.772026    0.000000
    -8.278889    4.772921    0.000000
     0.000000    0.000000   30.000000
   V    Mo   W    S 
   3   3   3  18
Direct configuration=     4
  -0.00033602  0.66963186 -0.00015202
   0.33116235 -0.00273592  0.00020855
   0.66646306 -0.00538010  0.00013334
  -0.00328622 -0.00190496  0.00018436
   0.66535456  0.66804691 -0.00015086
   0.33589893  0.66318494 -0.00016443
   1.00530427  0.33340175 -0.00006863
   0.33284778  0.33819762  0.00004692
   0.66606517  0.33686075 -0.00000929
   0.11172907  0.22308784  0.94909033
   0.22574249  0.10938805  0.04901378
   0.10742364  0.55728383  0.95082856
   0.22155564  0.44315014  0.05148585
   0.11355260  0.88582862  0.95162350
   0.21959045  0.78030969  0.04793429
   0.44196210  0.21764287  0.95084328
   0.55360459  0.10682415  0.04768098
   0.44402184  0.55426322  0.94855620
   0.55481847  0.44333459  0.05090352
   0.44696757  0.89426454  0.95201016
   0.55853748  0.78386303  0.05001893
   0.77533309  0.21763000  0.95130429
   0.88333583  0.10931960  0.04961733
   0.78298532  0.55745236  0.95034411
   0.89126028  0.44889123  0.04912709
   0.77455356  0.89176774  0.95004720
   0.89176654  0.77461011  0.04954256
unknown system                          
           1
     8.288665    4.771319    0.000000
    -8.290998    4.775383    0.000000
     0.000000    0.000000   30.000000
   V    Mo   W    S 
   3   3   3  18
Direct configuration=     5
  -0.00253537  0.67116437  0.00004135
   0.33001494 -0.00402006  0.00041314
   0.66685308 -0.00975181 -0.00006689
  -0.00644050 -0.00246140  0.00032532
   0.66302373  0.66701830 -0.00005257
   0.33728296  0.65616240 -0.00020734
   1.01281300  0.33384104 -0.00029176
   0.33234321  0.34453561  0.00001479
   0.66461767  0.34084574 -0.00012860
   0.11198208  0.22227339  0.94683452
   0.22597216  0.10931063  0.05035852
   0.10775651  0.55814563  0.94924052
   0.22191809  0.44367843  0.05461244
   0.11372413  0.88554252  0.94963134
   0.21963123  0.78008866  0.04926845
   0.44092256  0.21685706  0.94944599
   0.55327900  0.10604446  0.04886741
   0.44479759  0.55465370  0.94545942
   0.55469429  0.44417766  0.05318438
   0.44732780  0.89424747  0.95051895
   0.55893353  0.78466833  0.05252289
   0.77498042  0.21683408  0.95065246
   0.88202048  0.10882604  0.05171228
   0.78428207  0.55920904  0.94813552
   0.89235735  0.45010804  0.05032806
   0.77380346  0.89200342  0.94759269
   0.89185897  0.77421172  0.05158665
unknown system                          
           1
     8.288369    4.771020    0.000000
    -8.290685    4.775055    0.000000
     0.000000    0.000000   30.000000
   V    Mo   W    S 
   3   3   3  18
Direct configuration=     6
  -0.00388006  0.67190282  0.00005919
   0.33007949 -0.00451400  0.00049172
   0.66668800 -0.01137985 -0.00007850
  -0.00737499 -0.00288865  0.00028686
   0.66301512  0.66657956 -0.00010711
   0.33744519  0.65499885 -0.00018108
   1.01518216  0.33400582 -0.00021171
   0.33275257  0.34590605 -0.00007733
   0.66327285  0.34224189 -0.00019066
   0.11252220  0.22188711  0.94664071
   0.22572556  0.11004107  0.05013667
   0.10851435  0.55817149  0.94939531
   0.22207880  0.44376879  0.05509798
   0.11336166  0.88569782  0.94962233
   0.21988572  0.77931686  0.04910795
   0.44054502  0.21742550  0.94950586
   0.55366329  0.10638819  0.04868993
   0.44530116  0.55484561  0.94509015
   0.55426117  0.44442194  0.05343705
   0.44695945  0.89310823  0.95056938
   0.55853248  0.78396113  0.05265934
   0.77565740  0.21755414  0.95114778
   0.88226911  0.10918257  0.05175474
   0.78416266  0.55973828  0.94796705
   0.89250712  0.44978870  0.05001891
   0.77369441  0.89155710  0.94745431
   0.89139257  0.77450744  0.05171309
unknown system                          
           1
     8.298069    4.790178    0.000000
    -8.297621    4.789423    0.000000
     0.000000    0.000000   30.000000
   V    Mo   W    S 
   3   3   3  18
Direct configuration=     7
  -0.00399675  0.67198085  0.00006212
   0.33008886 -0.00457387  0.00050439
   0.66665664 -0.01155070 -0.00007884
  -0.00747601 -0.00293239  0.00028654
   0.66301918  0.66654562 -0.00010848
   0.33748105  0.65488155 -0.00018072
   1.01542244  0.33401055 -0.00021176
   0.33279269  0.34605448 -0.00007910
   0.66312648  0.34237771 -0.00019421
   0.11255691  0.22186580  0.94662528
   0.22571604  0.11008157  0.05011744
   0.10854878  0.55817163  0.94940769
   0.22210193  0.44377209  0.05513582
   0.11334175  0.88570257  0.94961753
   0.21988972  0.77927010  0.04909600
   0.44051805  0.21745094  0.94950230
   0.55369291  0.10641344  0.04867375
   0.44533704  0.55486527  0.94505915
   0.55423703  0.44444300  0.05346346
   0.44694449  0.89305055  0.95056924
   0.55852189  0.78392745  0.05267625
   0.77569522  0.21760608  0.95119359
   0.88227498  0.10919820  0.05176137
   0.78416304  0.55977483  0.94794416
   0.89251148  0.44976857  0.04999230
   0.77368038  0.89153350  0.94743524
   0.89136822  0.77452506  0.05172939
unknown system                          
           1
     8.293962    4.789373    0.000000
    -8.293398    4.788417    0.000000
     0.000000    0.000000   30.000000
   V    Mo   W    S 
   3   3   3  18
Direct configuration=     8
  -0.00126270  0.66925695  0.00001763
   0.32976568 -0.00285635  0.00014156
   0.66812012 -0.00729689 -0.00007017
  -0.00547597 -0.00172154  0.00034600
   0.66270549  0.66813979 -0.00001228
   0.33688379  0.65757495 -0.00018184
   1.00946244  0.33391855 -0.00028395
   0.33128737  0.34279397  0.00000222
   0.66768751  0.33903788  0.00002200
   0.11143309  0.22262682  0.94686685
   0.22584526  0.10927769  0.05070327
   0.10773305  0.55807291  0.94916048
   0.22132998  0.44370209  0.05439976
   0.11346768  0.88518350  0.94969321
   0.21985083  0.77999499  0.04934874
   0.44150454  0.21723773  0.94960895
   0.55311052  0.10574961  0.04902334
   0.44452234  0.55443114  0.94561029
   0.55503985  0.44388275  0.05268384
   0.44742100  0.89411215  0.95066278
   0.55870873  0.78463815  0.05221600
   0.77489877  0.21614711  0.94994124
   0.88199311  0.10897437  0.05166145
   0.78426796  0.55905516  0.94864013
   0.89280409  0.45076607  0.05066002
   0.77352967  0.89185330  0.94786558
   0.89158028  0.77366158  0.05127277
unknown system                          
           1
     8.279287    4.771588    0.000000
    -8.282481    4.777138    0.000000
     0.000000    0.000000   30.000000
   V    Mo   W    S 
   3   3   3  18
Direct configuration=     9
  -0.00045183  0.66851272  0.00000463
   0.32955137 -0.00232611  0.00004031
   0.66862399 -0.00603926 -0.00006007
  -0.00482624 -0.00130581  0.00035599
   0.66242103  0.66854360  0.00000164
   0.33669200  0.65804603 -0.00018017
   1.00780570  0.33393669 -0.00028603
   0.33071291  0.34195309  0.00001906
   0.66919002  0.33804118  0.00007104
   0.11114141  0.22279686  0.94695099
   0.22582542  0.10911598  0.05083870
   0.10760554  0.55803773  0.94908043
   0.22109455  0.44366301  0.05418572
   0.11345282  0.88508303  0.94973277
   0.21991758  0.78020446  0.04939526
   0.44178640  0.21727838  0.94968577
   0.55295159  0.10558115  0.04910522
   0.44429911  0.55427867  0.94577223
   0.55518699  0.44370288  0.05242776
   0.44748931  0.89429438  0.95071479
   0.55870246  0.78479906  0.05209579
   0.77474742  0.21578796  0.94958840
   0.88196322  0.10894846  0.05163199
   0.78426090  0.55887123  0.94884998
   0.89292543  0.45100105  0.05087122
   0.77354371  0.89191788  0.94798402
   0.89160165  0.77349017  0.05112244
unknown system                          
           1
     8.277996    4.765843    0.000000
    -8.281670    4.772223    0.000000
     0.000000    0.000000   30.000000
   V    Mo   W    S 
   3   3   3  18
Direct configuration=    10
   0.00085107  0.66770057  0.00003069
   0.32808716 -0.00141614 -0.00009123
   0.66992309 -0.00415404 -0.00002382
  -0.00317861 -0.00019727  0.00035718
   0.66037596  0.66898079 -0.00001855
   0.33653273  0.65644394 -0.00017849
   1.00549917  0.33431689 -0.00015761
   0.32871285  0.34158608  0.00002195
   0.67333957  0.33633458  0.00004802
   0.11086400  0.22267468  0.94687901
   0.22552611  0.10934448  0.05102050
   0.10808256  0.55805539  0.94870328
   0.22066567  0.44349720  0.05420562
   0.11313049  0.88521323  0.94971098
   0.22049302  0.78049091  0.04942476
   0.44208478  0.21796350  0.94998063
   0.55275700  0.10534169  0.04926296
   0.44406997  0.55387973  0.94570597
   0.55482115  0.44317862  0.05194473
   0.44706522  0.89379679  0.95087189
   0.55823678  0.78484563  0.05220004
   0.77499374  0.21554072  0.94889798
   0.88220988  0.10913847  0.05179505
   0.78422208  0.55886849  0.94908836
   0.89358588  0.45124596  0.05151269
   0.77388329  0.89190319  0.94792794
   0.89137984  0.77364039  0.05087937
unknown system                          
           1
     8.279253    4.757639    0.000000
    -8.285561    4.768582    0.000000
     0.000000    0.000000   30.000000
   V    Mo   W    S 
   3   3   3  18
Direct configuration=    11
  -0.00053606  0.66909229  0.00011006
   0.32694980 -0.00212940  0.00005437
   0.66987391 -0.00641511 -0.00006629
  -0.00382795 -0.00039830  0.00034579
   0.65884819  0.66872688 -0.00001145
   0.33736441  0.65332552 -0.00019833
   1.00847913  0.33466268 -0.00019065
   0.32792757  0.34409642 -0.00007020
   0.67382208  0.33751131 -0.00003018
   0.11119496  0.22228640  0.94652141
   0.22541050  0.11029328  0.05086221
   0.10897654  0.55804719  0.94875623
   0.22080152  0.44335644  0.05512975
   0.11274336  0.88552300  0.94950806
   0.22095390  0.77995777  0.04921143
   0.44176131  0.21881008  0.95015340
   0.55318323  0.10570378  0.04902131
   0.44457313  0.55384549  0.94490787
   0.55429723  0.44309106  0.05207921
   0.44642218  0.89258895  0.95107432
   0.55784505  0.78437035  0.05264524
   0.77583766  0.21625180  0.94932284
   0.88255839  0.10935824  0.05201448
   0.78414289  0.55954329  0.94876265
   0.89395582  0.45097527  0.05145884
   0.77388858  0.89167050  0.94757379
   0.89076712  0.77406925  0.05105374
unknown system                          
           1
     8.284707    4.759241    0.000000
    -8.291171    4.770453    0.000000
     0.000000    0.000000   30.000000
   V    Mo   W    S 
   3   3   3  18
Direct configuration=    12
  -0.00240438  0.67082840  0.00013869
   0.32524050 -0.00278844  0.00012402
   0.66978800 -0.00883352 -0.00002756
  -0.00440876 -0.00083015  0.00032320
   0.65735505  0.66841069 -0.00011960
   0.33830814  0.65021859 -0.00007149
   1.01185435  0.33512707 -0.00005894
   0.32676569  0.34669032 -0.00020557
   0.67543451  0.33895900 -0.00007956
   0.11145916  0.22202919  0.94619809
   0.22533390  0.11140772  0.05071581
   0.10987411  0.55828285  0.94897375
   0.22085793  0.44327287  0.05589199
   0.11231138  0.88566433  0.94932882
   0.22131516  0.77920736  0.04887611
   0.44157356  0.21972595  0.95049092
   0.55360721  0.10591178  0.04870627
   0.44509583  0.55363500  0.94418459
   0.55372169  0.44291747  0.05199670
   0.44584114  0.89130954  0.95139850
   0.55740989  0.78386786  0.05301435
   0.77668886  0.21654023  0.94961906
   0.88275945  0.10949405  0.05210192
   0.78417681  0.56032681  0.94862327
   0.89461500  0.45121519  0.05135240
   0.77375446  0.89142234  0.94730611
   0.88988580  0.77420197  0.05119806
unknown system                          
           1
     8.293754    4.761033    0.000000
    -8.300426    4.772598    0.000000
     0.000000    0.000000   30.000000
   V    Mo   W    S 
   3   3   3  18
Direct configuration=    13
  -0.00303372  0.67150893  0.00014263
   0.32486222 -0.00302289  0.00016122
   0.66954974 -0.00958654 -0.00001725
  -0.00458842 -0.00110843  0.00031554
   0.65742258  0.66833890 -0.00014847
   0.33859189  0.64998089 -0.00006076
   1.01265103  0.33508577 -0.00007602
   0.32664936  0.34704438 -0.00025857
   0.67559902  0.33939549 -0.00009241
   0.11151193  0.22197567  0.94616164
   0.22535012  0.11162355  0.05064845
   0.11002490  0.55836299  0.94911932
   0.22094085  0.44329930  0.05605204
   0.11222367  0.88567561  0.94928113
   0.22130124  0.77901472  0.04876894
   0.44154733  0.21986072  0.95057286
   0.55369105  0.10596089  0.04859180
   0.44520145  0.55361308  0.94407784
   0.55359735  0.44288095  0.05198205
   0.44575504  0.89108190  0.95148000
   0.55738892  0.78372488  0.05308073
   0.77686622  0.21659142  0.94976522
   0.88276502  0.10950110  0.05209499
   0.78419071  0.56047490  0.94855693
   0.89479282  0.45136995  0.05127679
   0.77368110  0.89136429  0.94725861
   0.88968103  0.77420201  0.05126466
unknown system                          
           1
     8.287182    4.760312    0.000000
    -8.293862    4.771899    0.000000
     0.000000    0.000000   30.000000
   V    Mo   W    S 
   3   3   3  18
Direct configuration=    14
  -0.00459547  0.67326058  0.00014557
   0.32371806 -0.00356157  0.00025070
   0.66896385 -0.01135951  0.00002540
  -0.00480928 -0.00176272  0.00029512
   0.65759819  0.66828058 -0.00022058
   0.33945147  0.64941824 -0.00000641
   1.01425005  0.33493775 -0.00005389
   0.32610315  0.34776860 -0.00034706
   0.67651059  0.34040575 -0.00008559
   0.11156157  0.22177822  0.94607688
   0.22535083  0.11210071  0.05049507
   0.11033574  0.55857313  0.94950140
   0.22115188  0.44335469  0.05632020
   0.11196655  0.88572609  0.94915025
   0.22123137  0.77858946  0.04849009
   0.44157891  0.22020185  0.95080458
   0.55385500  0.10605627  0.04829110
   0.44542009  0.55354134  0.94387410
   0.55329716  0.44268065  0.05185697
   0.44555229  0.89059663  0.95169239
   0.55737210  0.78336655  0.05322079
   0.77727527  0.21663307  0.95006413
   0.88281637  0.10953496  0.05204753
   0.78423294  0.56077508  0.94840454
   0.89529992  0.45183302  0.05110526
   0.77353006  0.89124302  0.94716721
   0.88919580  0.77424202  0.05143418
unknown system                          
           1
     8.280534    4.758326    0.000000
    -8.287446    4.770319    0.000000
     0.000000    0.000000   30.000000
   V    Mo   W    S 
   3   3   3  18
Direct configuration=    15
  -0.00299215  0.67154510  0.00016060
   0.32477845 -0.00299677  0.00016120
   0.66962436 -0.00953804 -0.00001808
  -0.00457680 -0.00110879  0.00032387
   0.65730142  0.66836166 -0.00014502
   0.33851797  0.64988348 -0.00007066
   1.01272374  0.33514663 -0.00009598
   0.32655960  0.34709508 -0.00026426
   0.67577126  0.33926210 -0.00009766
   0.11151093  0.22202775  0.94615160
   0.22537900  0.11173049  0.05063154
   0.11012255  0.55835155  0.94911980
   0.22090730  0.44326953  0.05612830
   0.11219301  0.88564062  0.94928557
   0.22137578  0.77898548  0.04874052
   0.44153430  0.21994246  0.95061085
   0.55371728  0.10596941  0.04857472
   0.44519703  0.55358291  0.94402094
   0.55355410  0.44287301  0.05195032
   0.44569954  0.89095602  0.95153219
   0.55732043  0.78370115  0.05308903
   0.77695459  0.21660451  0.94976120
   0.88277186  0.10950961  0.05210499
   0.78420126  0.56054399  0.94857809
   0.89484342  0.45140100  0.05129139
   0.77364501  0.89134832  0.94724585
   0.88957923  0.77412617  0.05122900
unknown system                          
           1
     8.290929    4.761151    0.000000
    -8.298207    4.773774    0.000000
     0.000000    0.000000   30.000000
   V    Mo   W    S 
   3   3   3  18
Direct configuration=    16
  -0.00117873  0.66986236  0.00019183
   0.32563285 -0.00236724  0.00005197
   0.67052916 -0.00757770 -0.00004056
  -0.00438467 -0.00048114  0.00034618
   0.65660831  0.66857248 -0.00010458
   0.33742316  0.64982473 -0.00010495
   1.01143561  0.33557167 -0.00006859
   0.32678129  0.34676182 -0.00016495
   0.67542704  0.33778949 -0.00010994
   0.11147526  0.22232372  0.94622043
   0.22545623  0.11155664  0.05072128
   0.11003840  0.55809720  0.94871541
   0.22059383  0.44310770  0.05595578
   0.11239284  0.88551334  0.94946761
   0.22168612  0.77937800  0.04893443
   0.44147808  0.21986742  0.95051614
   0.55362547  0.10592436  0.04882495
   0.44492818  0.55355615  0.94413104
   0.55372215  0.44302182  0.05192945
   0.44571485  0.89110649  0.95148858
   0.55709899  0.78399931  0.05292414
   0.77682326  0.21661415  0.94942237
   0.88279197  0.10952941  0.05214138
   0.78418742  0.56039291  0.94885701
   0.89444386  0.45095688  0.05147194
   0.77371338  0.89142890  0.94733662
   0.88977014  0.77388357  0.05094493
unknown system                          
           1
     8.292680    4.760448    0.000000
    -8.300112    4.773335    0.000000
     0.000000    0.000000   30.000000
   V    Mo   W    S 
   3   3   3  18
Direct configuration=    17
  -0.00223930  0.67120655  0.00018050
   0.32458106 -0.00275303  0.00010519
   0.67013646 -0.00893952 -0.00000636
  -0.00455952 -0.00098731  0.00032786
   0.65662664  0.66866824 -0.00016695
   0.33807685  0.64930366 -0.00006439
   1.01256874  0.33543971 -0.00006716
   0.32628044  0.34733970 -0.00026944
   0.67643526  0.33843782 -0.00011724
   0.11148059  0.22213031  0.94615050
   0.22543145  0.11190197  0.05062319
   0.11022130  0.55827127  0.94900858
   0.22075540  0.44317282  0.05620991
   0.11217545  0.88557358  0.94934291
   0.22161205  0.77905760  0.04873129
   0.44154737  0.22016593  0.95071753
   0.55374607  0.10596803  0.04860425
   0.44508273  0.55348378  0.94397033
   0.55351117  0.44281559  0.05178830
   0.44556964  0.89076709  0.95167319
   0.55708445  0.78375000  0.05304772
   0.77715737  0.21660588  0.94962589
   0.88284076  0.10955370  0.05211569
   0.78422838  0.56059997  0.94876225
   0.89488944  0.45138373  0.05137370
   0.77361058  0.89137090  0.94725253
   0.88936365  0.77392649  0.05108014
unknown system                          
           1
     8.289547    4.758576    0.000000
    -8.297132    4.771730    0.000000
     0.000000    0.000000   30.000000
   V    Mo   W    S 
   3   3   3  18
Direct configuration=    18
  -0.00282025  0.67197541  0.00017679
   0.32394072 -0.00294742  0.00012885
   0.66995526 -0.00962917  0.00002093
  -0.00463296 -0.00130990  0.00032192
   0.65660160  0.66880166 -0.00019907
   0.33846447  0.64898269 -0.00002945
   1.01313155  0.33540136 -0.00003972
   0.32589333  0.34765906 -0.00030160
   0.67716749  0.33867025 -0.00011073
   0.11145607  0.22202592  0.94612064
   0.22539900  0.11207539  0.05056906
   0.11032269  0.55835480  0.94916853
   0.22083488  0.44319020  0.05629777
   0.11205352  0.88562019  0.94927767
   0.22158725  0.77892556  0.04861711
   0.44162312  0.22034944  0.95084303
   0.55380547  0.10599385  0.04848102
   0.44515155  0.55344492  0.94389869
   0.55341442  0.44269011  0.05166407
   0.44548077  0.89060201  0.95178576
   0.55707699  0.78362062  0.05309892
   0.77733976  0.21657735  0.94970885
   0.88288592  0.10956749  0.05208598
   0.78423564  0.56067485  0.94873792
   0.89513983  0.45160846  0.05132041
   0.77356054  0.89133834  0.94722043
   0.88914582  0.77395101  0.05113612
unknown system                          
           1
     8.289505    4.755408    0.000000
    -8.298686    4.771333    0.000000
     0.000000    0.000000   30.000000
   V    Mo   W    S 
   3   3   3  18
Direct configuration=    19
  -0.00297635  0.67213221  0.00017928
   0.32384927 -0.00299300  0.00013981
   0.66988403 -0.00980780  0.00002604
  -0.00463917 -0.00134689  0.00032149
   0.65660794  0.66874974 -0.00020334
   0.33854776  0.64888666 -0.00001992
   1.01331330  0.33538551 -0.00002832
   0.32584425  0.34775999 -0.00030102
   0.67721686  0.33881469 -0.00010802
   0.11145944  0.22199896  0.94611691
   0.22538978  0.11210402  0.05054795
   0.11034102  0.55836236  0.94920736
   0.22085873  0.44319003  0.05630313
   0.11203631  0.88564155  0.94926783
   0.22158102  0.77889266  0.04858993
   0.44163319  0.22037110  0.95086310
   0.55382615  0.10601897  0.04844744
   0.44517418  0.55344566  0.94388778
   0.55339696  0.44267653  0.05165172
   0.44546000  0.89056483  0.95180306
   0.55707921  0.78357434  0.05310564
   0.77737145  0.21660150  0.94974966
   0.88290505  0.10958224  0.05207337
   0.78422664  0.56068598  0.94872321
   0.89516347  0.45162645  0.05128988
   0.77355630  0.89132471  0.94721725
   0.88910766  0.77397144  0.05114866
unknown system                          
           1
     8.288644    4.756630    0.000000
    -8.297470    4.771945    0.000000
     0.000000    0.000000   30.000000
   V    Mo   W    S 
   3   3   3  18
Direct configuration=    20
  -0.00469869  0.67369683  0.00016298
   0.32274240 -0.00334074  0.00019806
   0.66922854 -0.01132151  0.00006279
  -0.00459527 -0.00186768  0.00026332
   0.65682838  0.66851122 -0.00029227
   0.33938904  0.64844769  0.00003157
   1.01447702  0.33515543 -0.00002612
   0.32525892  0.34818874 -0.00043434
   0.67850125  0.33981241 -0.00011367
   0.11143412  0.22171062  0.94598585
   0.22534691  0.11245680  0.05054366
   0.11055622  0.55863704  0.94951594
   0.22107641  0.44331632  0.05661939
   0.11179406  0.88576707  0.94902811
   0.22148190  0.77854220  0.04842076
   0.44177907  0.22068702  0.95102778
   0.55391985  0.10609182  0.04825674
   0.44537757  0.55337179  0.94367805
   0.55318560  0.44239468  0.05156229
   0.44522930  0.89021494  0.95190712
   0.55709627  0.78323643  0.05333116
   0.77766736  0.21656686  0.94991757
   0.88298372  0.10962007  0.05211916
   0.78422715  0.56086973  0.94850107
   0.89572128  0.45214777  0.05124408
   0.77350363  0.89120956  0.94707029
   0.88870244  0.77409137  0.05141858
unknown system                          
           1
     8.296262    4.763408    0.000000
    -8.305262    4.779042    0.000000
     0.000000    0.000000   30.000000
   V    Mo   W    S 
   3   3   3  18
Direct configuration=    21
  -0.00300899  0.67217622  0.00016803
   0.32379142 -0.00299887  0.00012299
   0.66994304 -0.00978372  0.00001851
  -0.00475520 -0.00149777  0.00029506
   0.65651239  0.66884611 -0.00023883
   0.33849981  0.64869538 -0.00004846
   1.01342318  0.33548349 -0.00006509
   0.32577784  0.34790922 -0.00035964
   0.67742228  0.33866506 -0.00013238
   0.11148512  0.22202169  0.94612862
   0.22538404  0.11218639  0.05055462
   0.11040935  0.55836035  0.94920626
   0.22082949  0.44320223  0.05640959
   0.11198800  0.88562721  0.94925609
   0.22163004  0.77885146  0.04859894
   0.44162576  0.22045884  0.95089976
   0.55385593  0.10600176  0.04845108
   0.44518477  0.55343903  0.94385616
   0.55337953  0.44268238  0.05162367
   0.44544456  0.89050503  0.95183904
   0.55701421  0.78359338  0.05315081
   0.77744212  0.21661032  0.94975130
   0.88289756  0.10958003  0.05210428
   0.78425252  0.56073600  0.94876666
   0.89519703  0.45163953  0.05130637
   0.77356332  0.89133374  0.94718821
   0.88902531  0.77388997  0.05114828
unknown system                          
           1
     8.295732    4.759791    0.000000
    -8.304661    4.775289    0.000000
     0.000000    0.000000   30.000000
   V    Mo   W    S 
   3   3   3  18
Direct configuration=    22
   0.00073316  0.66929230  0.00023776
   0.32567877 -0.00226384 -0.00001039
   0.67165280 -0.00644858  0.00000308
  -0.00536517 -0.00121387  0.00041565
   0.65569191  0.67003744 -0.00008157
   0.33639123  0.64864332 -0.00007535
   1.01151228  0.33642364 -0.00000828
   0.32662049  0.34777392 -0.00008918
   0.67565447  0.33561214 -0.00013579
   0.11152778  0.22250171  0.94630830
   0.22548522  0.11183833  0.05051243
   0.11026581  0.55785176  0.94845394
   0.22031137  0.44295254  0.05608881
   0.11236338  0.88536283  0.94964130
   0.22214728  0.77950041  0.04895438
   0.44125708  0.22019811  0.95070271
   0.55373075  0.10577082  0.04887112
   0.44490370  0.55362074  0.94397933
   0.55371465  0.44328318  0.05159373
   0.44571670  0.89091850  0.95176484
   0.55662712  0.78429568  0.05281690
   0.77720134  0.21664709  0.94927991
   0.88283212  0.10954033  0.05209764
   0.78425204  0.56054785  0.94934653
   0.89425327  0.45061734  0.05147962
   0.77364809  0.89161949  0.94726071
   0.88940681  0.77329128  0.05059178
unknown system                          
           1
     8.296980    4.759723    0.000000
    -8.306451    4.776165    0.000000
     0.000000    0.000000   30.000000
   V    Mo   W    S 
   3   3   3  18
Direct configuration=    23
  -0.00088307  0.67114813  0.00018121
   0.32414051 -0.00268758  0.00002778
   0.67098780 -0.00829540  0.00002505
  -0.00546360 -0.00186846  0.00034424
   0.65590368  0.67016016 -0.00022416
   0.33737668  0.64815650 -0.00006513
   1.01276855  0.33610670 -0.00004278
   0.32588008  0.34831906 -0.00029689
   0.67739040  0.33653902 -0.00015967
   0.11145468  0.22216719  0.94624875
   0.22540267  0.11219700  0.05046022
   0.11041460  0.55813449  0.94890414
   0.22056533  0.44306093  0.05639159
   0.11207569  0.88550502  0.94942551
   0.22194748  0.77912739  0.04870777
   0.44149660  0.22056307  0.95097203
   0.55382878  0.10587812  0.04861567
   0.44507740  0.55351842  0.94388199
   0.55351876  0.44288222  0.05139470
   0.44546827  0.89053406  0.95196466
   0.55669075  0.78393019  0.05302543
   0.77756614  0.21656607  0.94949721
   0.88297653  0.10960450  0.05208677
   0.78421110  0.56065608  0.94917967
   0.89494293  0.45131621  0.05140616
   0.77353963  0.89151694  0.94717423
   0.88893611  0.77347840  0.05087373
unknown system                          
           1
     8.301061    4.761873    0.000000
    -8.308923    4.775504    0.000000
     0.000000    0.000000   30.000000
   V    Mo   W    S 
   3   3   3  18
Direct configuration=    24
  -0.00039720  0.67098289  0.00018289
   0.32411685 -0.00260640 -0.00000009
   0.67124872 -0.00796365  0.00003446
  -0.00569999 -0.00208221  0.00035713
   0.65575725  0.67060490 -0.00022291
   0.33712074  0.64796129 -0.00006589
   1.01264704  0.33629099 -0.00003326
   0.32583025  0.34847502 -0.00028638
   0.67758238  0.33591316 -0.00016269
   0.11143260  0.22218512  0.94627732
   0.22538390  0.11221283  0.05043528
   0.11042669  0.55808801  0.94883938
   0.22050015  0.44302118  0.05640613
   0.11207139  0.88548636  0.94944977
   0.22202947  0.77919913  0.04872975
   0.44149620  0.22062900  0.95101042
   0.55382525  0.10584276  0.04865246
   0.44506171  0.55354875  0.94387625
   0.55356940  0.44291630  0.05129742
   0.44545336  0.89052657  0.95201300