unknown system                          
           1
     8.855463    5.105207    0.000000
    -8.855361    5.105032    0.000000
     0.000000    0.000000   30.000000
   V    Mo   W    S 
   3   3   3  18
Direct configuration=     1
   0.33333334  0.33333334  0.00000000
   0.66666669  0.00000000  0.00000000
   0.00000000  0.00000000  0.00000000
   1.00000000  0.33333334  0.00000000
   0.33333334  0.00000000  0.00000000
   0.66666669  0.66666669  0.00000000
   0.00000000  0.66666669  0.00000000
   0.33333334  0.66666669  0.00000000
   0.66666669  0.33333334  0.00000000
   0.11068511  0.22244981  0.95539999
   0.22244981  0.11068511  0.04460000
   0.11068511  0.55578315  0.95539999
   0.22244981  0.44401845  0.04460000
   0.11068511  0.88911647  0.95539999
   0.22244981  0.77735180  0.04460000
   0.44401845  0.22244981  0.95539999
   0.55578315  0.11068511  0.04460000
   0.44401845  0.55578315  0.95539999
   0.55578315  0.44401845  0.04460000
   0.44401845  0.88911647  0.95539999
   0.55578315  0.77735180  0.04460000
   0.77735180  0.22244981  0.95539999
   0.88911647  0.11068511  0.04460000
   0.77735180  0.55578315  0.95539999
   0.88911647  0.44401845  0.04460000
   0.77735180  0.88911647  0.95539999
   0.88911647  0.77735180  0.04460000
unknown system                          
           1
     8.667190    4.999023    0.000000
    -8.667008    4.998710    0.000000
     0.000000    0.000000   30.000000
   V    Mo   W    S 
   3   3   3  18
Direct configuration=     2
   0.33283603  0.33284971  0.00016828
   0.66711243 -0.00008169 -0.00017221
   0.00001518  0.00054134  0.00000675
   1.00004607  0.33312997 -0.00001479
   0.33315698  0.00002897  0.00007594
   0.66679953  0.66684098 -0.00006116
  -0.00012735  0.66691759  0.00000584
   0.33371996  0.66665609 -0.00021976
   0.66635202  0.33304481  0.00021053
   0.11314068  0.21994419  0.95305164
   0.22004735  0.11328286  0.04696580
   0.11158597  0.55638291  0.95071304
   0.22504199  0.44274071  0.04801983
   0.10812773  0.89019209  0.95199630
   0.22154022  0.77688178  0.04925703
   0.44287070  0.22497414  0.95201900
   0.55836751  0.10969191  0.04797406
   0.44167305  0.55150431  0.95194987
   0.55132297  0.44157090  0.04810651
   0.44843652  0.89003270  0.95190140
   0.55675458  0.78169582  0.04804975
   0.77500896  0.21789822  0.95191636
   0.88684376  0.10661391  0.04688178
   0.77825038  0.55516554  0.95074903
   0.88828916  0.44479876  0.04927859
   0.77955381  0.89324492  0.95309315
   0.89144823  0.78167103  0.04807737
unknown system                          
           1
     8.484030    4.897759    0.000000
    -8.484347    4.898309    0.000000
     0.000000    0.000000   30.000000
   V    Mo   W    S 
   3   3   3  18
Direct configuration=     3
   0.33281958  0.33280652  0.00018679
   0.66712703 -0.00011455 -0.00019215
   0.00001988  0.00058875  0.00000749
   1.00004500  0.33358844 -0.00001572
   0.33309929 -0.00022680  0.00008016
   0.66684890  0.66663409 -0.00006431
  -0.00014144  0.66673965  0.00000656
   0.33356984  0.66668917 -0.00024039
   0.66651979  0.33324767  0.00023145
   0.11316729  0.21988473  0.95309803
   0.21999822  0.11333064  0.04694146
   0.11171401  0.55666769  0.95068751
   0.22522452  0.44292620  0.04801942
   0.10796139  0.89003083  0.95200323
   0.22143525  0.77660125  0.04925441
   0.44305332  0.22513602  0.95204992
   0.55855668  0.10988377  0.04796902
   0.44145708  0.55148406  0.95196312
   0.55130298  0.44134354  0.04811495
   0.44846556  0.88987663  0.95188971
   0.55660675  0.78171163  0.04801222
   0.77478474  0.21787691  0.95193060
   0.88678915  0.10652757  0.04684349
   0.77835959  0.55502506  0.95074532
   0.88815236  0.44491351  0.04930812
   0.77963303  0.89334528  0.95310906
   0.89164469  0.78169620  0.04806044
unknown system                          
           1
     8.265033    4.770829    0.000000
    -8.265945    4.772410    0.000000
     0.000000    0.000000   30.000000
   V    Mo   W    S 
   3   3   3  18
Direct configuration=     4
   0.33322415  0.33305520  0.00017635
   0.66666337 -0.00029994 -0.00018431
   0.00004214  0.00031394  0.00000691
   1.00004255  0.33620753 -0.00001193
   0.33288449 -0.00166770  0.00005526
   0.66700617  0.66537371 -0.00004320
  -0.00017348  0.66544740  0.00000614
   0.33238760  0.66686412 -0.00020613
   0.66771749  0.33462943  0.00020130
   0.11363984  0.21933135  0.95197666
   0.21936640  0.11384997  0.04817851
   0.11182580  0.55703976  0.94892182
   0.22590230  0.44255587  0.04946615
   0.10733465  0.89060800  0.95057834
   0.22141691  0.77622292  0.05087587
   0.44256952  0.22568348  0.95074350
   0.55925264  0.10935819  0.04941100
   0.44066796  0.55017650  0.95055478
   0.55003898  0.44053701  0.04964794
   0.44974313  0.89046864  0.95035096
   0.55719079  0.78286189  0.04929547
   0.77399057  0.21673141  0.95051918
   0.88624903  0.10553411  0.04799316
   0.77840514  0.55479488  0.94909703
   0.88804902  0.44505357  0.05109003
   0.78038648  0.89448474  0.95184160
   0.89239080  0.78299849  0.04945753
unknown system                          
           1
     8.250178    4.759079    0.000000
    -8.254151    4.765962    0.000000
     0.000000    0.000000   30.000000
   V    Mo   W    S 
   3   3   3  18
Direct configuration=     5
   0.33467571  0.33411412 -0.00003377
   0.66509420 -0.00079216  0.00002466
   0.00003735 -0.00061077  0.00000535
   1.00001145  0.34204260 -0.00000712
   0.33251004 -0.00492104 -0.00002191
   0.66733172  0.66245428  0.00002918
  -0.00029544  0.66183768  0.00000672
   0.32923827  0.66725698 -0.00004460
   0.67096166  0.33827791  0.00004003
   0.11377430  0.21917646  0.95047956
   0.21873869  0.11406501  0.05002124
   0.11198745  0.55740756  0.94620662
   0.22624960  0.44211646  0.05142577
   0.10676938  0.89123089  0.94868575
   0.22139886  0.77607683  0.05319507
   0.44189407  0.22572417  0.94918827
   0.55984770  0.10877285  0.05125342
   0.44000573  0.54883293  0.94873236
   0.54863440  0.43966375  0.05192353
   0.45117976  0.89102537  0.94807394
   0.55800203  0.78378234  0.05082783
   0.77357437  0.21578501  0.94859616
   0.88605758  0.10534846  0.04950814
   0.77842964  0.55469934  0.94676310
   0.88791353  0.44524013  0.05381415
   0.78113369  0.89523488  0.94998592
   0.89305872  0.78437241  0.05132055
unknown system                          
           1
     8.251867    4.758558    0.000000
    -8.257212    4.767819    0.000000
     0.000000    0.000000   30.000000
   V    Mo   W    S 
   3   3   3  18
Direct configuration=     6
   0.33550843  0.33467830 -0.00007744
   0.66419926 -0.00110921  0.00007163
   0.00003986 -0.00097825  0.00000425
   1.00000477  0.34391718 -0.00000861
   0.33222209 -0.00634712 -0.00003037
   0.66760817  0.66131099  0.00003897
  -0.00030849  0.66034381  0.00000324
   0.32759817  0.66744493 -0.00005979
   0.67261482  0.34011753  0.00005656
   0.11339369  0.21977160  0.95052711
   0.21897848  0.11379761  0.05008699
   0.11207701  0.55764383  0.94567340
   0.22588127  0.44230300  0.05152598
   0.10675722  0.89072147  0.94860337
   0.22108502  0.77606399  0.05358904
   0.44211918  0.22527885  0.94924442
   0.55976066  0.10909675  0.05126076
   0.44009961  0.54922571  0.94871554
   0.54880403  0.43948680  0.05218984
   0.45102588  0.89065948  0.94780307
   0.55779577  0.78311054  0.05078305
   0.77397883  0.21635687  0.94849283
   0.88645438  0.10632555  0.04945610
   0.77872645  0.55497440  0.94636357
   0.88782373  0.44540729  0.05435536
   0.78089717  0.89472370  0.94992259
   0.89306899  0.78388885  0.05140844
unknown system                          
           1
     8.252130    4.755453    0.000000
    -8.260381    4.769746    0.000000
     0.000000    0.000000   30.000000
   V    Mo   W    S 
   3   3   3  18
Direct configuration=     7
   0.33619207  0.33506140 -0.00012086
   0.66346328 -0.00145723  0.00011508
   0.00004593 -0.00115506  0.00000508
   1.00000564  0.34544348 -0.00000618
   0.33171415 -0.00788165 -0.00003790
   0.66810563  0.66029361  0.00004443
  -0.00031399  0.65925379  0.00000332
   0.32609866  0.66773443 -0.00004124
   0.67413274  0.34191216  0.00003775
   0.11314606  0.22021852  0.95069729
   0.21920159  0.11364814  0.05001243
   0.11210774  0.55781294  0.94532872
   0.22566374  0.44252632  0.05150464
   0.10671315  0.89027013  0.94862036
   0.22077330  0.77595346  0.05382708
   0.44241429  0.22498486  0.94942392
   0.55974101  0.10942152  0.05115296
   0.44012974  0.54956776  0.94881833
   0.54895190  0.43934612  0.05233585
   0.45088892  0.89035794  0.94765525
   0.55750875  0.78252202  0.05061211
   0.77421536  0.21680394  0.94851520
   0.88670806  0.10701524  0.04927927
   0.77902756  0.55515841  0.94612358
   0.88779796  0.44556141  0.05470100
   0.78067202  0.89435469  0.95000121
   0.89310918  0.78348613  0.05139122
unknown system                          
           1
     8.252681    4.756649    0.000000
    -8.260139    4.769567    0.000000
     0.000000    0.000000   30.000000
   V    Mo   W    S 
   3   3   3  18
Direct configuration=     8
   0.33715858  0.33557195 -0.00019366
   0.66239061 -0.00200955  0.00018986
   0.00004597 -0.00118949  0.00000707
   1.00000710  0.34758529 -0.00000517
   0.33067503 -0.01057234 -0.00006590
   0.66914498  0.65870597  0.00006992
  -0.00031348  0.65784746 -0.00000013
   0.32378217  0.66826339 -0.00005446
   0.67649674  0.34474610  0.00005086
   0.11290342  0.22080321  0.95098628
   0.21949817  0.11347318  0.04986350
   0.11214459  0.55802546  0.94487521
   0.22542736  0.44287790  0.05144073
   0.10660739  0.88969300  0.94865080
   0.22022885  0.77572165  0.05420408
   0.44290614  0.22459825  0.94976316
   0.55970407  0.10990071  0.05091350
   0.44017817  0.55008681  0.94905115
   0.54916084  0.43914026  0.05251932
   0.45069867  0.88993615  0.94746461
   0.55702978  0.78165318  0.05028306
   0.77447139  0.21739483  0.94858644
   0.88694972  0.10783382  0.04898040
   0.77956492  0.55545975  0.94574802
   0.88776579  0.44575326  0.05515933
   0.78037603  0.89389557  0.95015315
   0.89321144  0.78301871  0.05135878
unknown system                          
           1
     8.253553    4.757788    0.000000
    -8.260500    4.769824    0.000000
     0.000000    0.000000   30.000000
   V    Mo   W    S 
   3   3   3  18
Direct configuration=     9
   0.33687033  0.33541392 -0.00017206
   0.66270793 -0.00185322  0.00016759
   0.00004545 -0.00116112  0.00000663
   1.00000724  0.34691307 -0.00000530
   0.33094358 -0.00981629 -0.00005720
   0.66887772  0.65917811  0.00006192
  -0.00031301  0.65831791  0.00000090
   0.32448210  0.66812915 -0.00005152
   0.67578398  0.34391420  0.00004800
   0.11298588  0.22062107  0.95090043
   0.21940770  0.11352927  0.04990549
   0.11213100  0.55795717  0.94501487
   0.22550639  0.44277568  0.05145699
   0.10663571  0.88987306  0.94863998
   0.22038394  0.77578451  0.05409298
   0.44276225  0.22471054  0.94966834
   0.55970891  0.10975670  0.05097807
   0.44016940  0.54993769  0.94898869
   0.54909849  0.43920397  0.05246368
   0.45075589  0.89006523  0.94752194
   0.55716979  0.78190736  0.05037513
   0.77438563  0.21721143  0.94856822
   0.88686614  0.10757113  0.04906905
   0.77941236  0.55537183  0.94585905
   0.88777853  0.44569347  0.05501807
   0.78046652  0.89403964  0.95010990
   0.89318462  0.78316898  0.05137004
unknown system                          
           1
     8.251677    4.755130    0.000000
    -8.259608    4.768869    0.000000
     0.000000    0.000000   30.000000
   V    Mo   W    S 
   3   3   3  18
Direct configuration=    10
   0.33681294  0.33538127 -0.00016343
   0.66277889 -0.00182315  0.00015399
   0.00008002 -0.00106995  0.00000591
   1.00003983  0.34691272 -0.00000496
   0.33074858 -0.01002522 -0.00005686
   0.66902527  0.65910512  0.00006127
  -0.00030115  0.65832428  0.00000154
   0.32431987  0.66813357 -0.00005474
   0.67590494  0.34409572  0.00005116
   0.11303662  0.22059940  0.95089624
   0.21941180  0.11355294  0.04989368
   0.11210127  0.55795280  0.94504115
   0.22557265  0.44276501  0.05143960
   0.10658105  0.88988773  0.94864630
   0.22034390  0.77576155  0.05409381
   0.44273763  0.22470005  0.94969558
   0.55967451  0.10976126  0.05096013
   0.44018942  0.54995190  0.94901402
   0.54906310  0.43919917  0.05244912
   0.45077261  0.89009209  0.94753158
   0.55717844  0.78189731  0.05035619
   0.77432649  0.21714769  0.94858069
   0.88683578  0.10751366  0.04907860
   0.77945346  0.55538991  0.94585903
   0.88781001  0.44571883  0.05499133
   0.78047657  0.89405146  0.95011659
   0.89323995  0.78323736  0.05136240
unknown system                          
           1
     8.246058    4.745396    0.000000
    -8.258580    4.767082    0.000000
     0.000000    0.000000   30.000000
   V    Mo   W    S 
   3   3   3  18
Direct configuration=    11
   0.33722322  0.33556260 -0.00014180
   0.66224666 -0.00209914  0.00014051
  -0.00006142 -0.00164611  0.00000370
   0.99994549  0.34783202 -0.00000672
   0.33131738 -0.00964239 -0.00003984
   0.66863144  0.65914131  0.00003757
  -0.00035830  0.65773315 -0.00001113
   0.32425732  0.66796889 -0.00006221
   0.67611475  0.34395237  0.00005509
   0.11284405  0.22071031  0.95098950
   0.21947895  0.11350625  0.04987720
   0.11222547  0.55808256  0.94491493
   0.22541918  0.44283275  0.05147285
   0.10669920  0.88974622  0.94866358
   0.22038804  0.77584667  0.05412026
   0.44287523  0.22475430  0.94960755
   0.55986228  0.10983742  0.05105997
   0.44005085  0.54989932  0.94891704
   0.54906806  0.43910577  0.05251837
   0.45087799  0.89003305  0.94744784
   0.55709497  0.78186877  0.05044303
   0.77444480  0.21729634  0.94853545
   0.88695843  0.10776246  0.04898832
   0.77940441  0.55542089  0.94583410
   0.88769274  0.44573986  0.05514227
   0.78036994  0.89398141  0.95012592
   0.89314332  0.78298740  0.05136654
unknown system                          
           1
     8.246622    4.745659    0.000000
    -8.259235    4.767502    0.000000
     0.000000    0.000000   30.000000
   V    Mo   W    S 
   3   3   3  18
Direct configuration=    12
   0.33926636  0.33616100 -0.00016815
   0.65964466 -0.00376801  0.00019562
  -0.00059483 -0.00412351  0.00000715
   0.99965338  0.35178900  0.00000594
   0.33353504 -0.00828259 -0.00003726
   0.66709359  0.65907155  0.00003815
  -0.00060951  0.65546468 -0.00000960
   0.32392998  0.66755668 -0.00002842
   0.67697463  0.34371769  0.00003242
   0.11218264  0.22127226  0.95158478
   0.21990560  0.11344854  0.04975725
   0.11265197  0.55875830  0.94430014
   0.22487174  0.44310362  0.05150110
   0.10716833  0.88904901  0.94876968
   0.22034254  0.77603304  0.05416937
   0.44352964  0.22508030  0.94947512
   0.56060892  0.11007743  0.05132552
   0.43946964  0.54957258  0.94869672
   0.54911751  0.43879449  0.05269835
   0.45122602  0.88982007  0.94715665
   0.55662502  0.78169453  0.05060342
   0.77489078  0.21789651  0.94844347
   0.88735919  0.10880025  0.04841934
   0.77941700  0.55561298  0.94575159
   0.88733496  0.44607636  0.05581243
   0.77982580  0.89367101  0.95017518
   0.89279386  0.78186667  0.05132393
unknown system                          
           1
     8.255650    4.751311    0.000000
    -8.268749    4.774000    0.000000
     0.000000    0.000000   30.000000
   V    Mo   W    S 
   3   3   3  18
Direct configuration=    13
   0.33944423  0.33617648 -0.00017227
   0.65942635 -0.00394770  0.00019872
  -0.00062609 -0.00434090  0.00000679
   0.99964776  0.35211239  0.00000519
   0.33366037 -0.00823115 -0.00003363
   0.66701782  0.65904487  0.00003233
  -0.00063038  0.65531509 -0.00001178
   0.32386958  0.66756258 -0.00003400
   0.67706062  0.34377210  0.00003498
   0.11212701  0.22131164  0.95164442
   0.21994608  0.11344405  0.04974623
   0.11268669  0.55882662  0.94425646
   0.22483626  0.44311800  0.05149588
   0.10720558  0.88900253  0.94877491
   0.22033765  0.77605777  0.05416919
   0.44358560  0.22509519  0.94947065
   0.56065077  0.11009671  0.05133688
   0.43943806  0.54955788  0.94869276
   0.54913398  0.43878518  0.05271200
   0.45122422  0.88979899  0.94713339
   0.55657662  0.78165600  0.05061353
   0.77492495  0.21793913  0.94844570
   0.88739870  0.10888615  0.04836307
   0.77941949  0.55563934  0.94575104
   0.88730519  0.44611187  0.05586302
   0.77978134  0.89363661  0.95017899
   0.89276600  0.78178706  0.05132543
unknown system                          
           1
     8.258624    4.752635    0.000000
    -8.272273    4.776280    0.000000
     0.000000    0.000000   30.000000
   V    Mo   W    S 
   3   3   3  18
Direct configuration=    14
   0.34032272  0.33590984 -0.00024619
   0.65846987 -0.00513531  0.00024708
  -0.00057368 -0.00517869  0.00000646
   0.99984259  0.35356419  0.00000600
   0.33283039 -0.00963097 -0.00001888
   0.66790092  0.65840596  0.00001284
  -0.00065167  0.65510497 -0.00001011
   0.32262507  0.66813101 -0.00010001
   0.67813828  0.34551866  0.00009001
   0.11188458  0.22150996  0.95204699
   0.22016576  0.11333841  0.04964981
   0.11277039  0.55921833  0.94405666
   0.22477616  0.44330524  0.05135339
   0.10723486  0.88880459  0.94877591
   0.22007227  0.77606225  0.05424715
   0.44402563  0.22493607  0.94968050
   0.56051516  0.11028133  0.05113907
   0.43957403  0.54984173  0.94893599
   0.54940390  0.43889445  0.05277178
   0.45084485  0.88957536  0.94703326
   0.55609233  0.78097026  0.05043884
   0.77506286  0.21826474  0.94860009
   0.88764170  0.10935913  0.04796483
   0.77966996  0.55589367  0.94566925
   0.88723304  0.44638919  0.05606202
   0.77959878  0.89330249  0.95024953
   0.89274369  0.78157756  0.05133762
unknown system                          
           1
     8.239616    4.745580    0.000000
    -8.250263    4.764028    0.000000
     0.000000    0.000000   30.000000
   V    Mo   W    S 
   3   3   3  18
Direct configuration=    15
   0.34066700  0.33583374 -0.00027388
   0.65814366 -0.00558532  0.00026595
  -0.00049582 -0.00512379  0.00000699
   0.99993719  0.35380028  0.00000626
   0.33204037 -0.01081772 -0.00001780
   0.66865485  0.65791385  0.00001182
  -0.00064418  0.65529737 -0.00001048
   0.32207227  0.66862960 -0.00012513
   0.67860353  0.34659177  0.00011194
   0.11194818  0.22159693  0.95213100
   0.22021277  0.11334376  0.04962582
   0.11270577  0.55924702  0.94400317
   0.22483687  0.44339063  0.05126924
   0.10717355  0.88879609  0.94870441
   0.21986290  0.77596486  0.05436461
   0.44413370  0.22475895  0.94982304
   0.56038762  0.11037897  0.05095899
   0.43967194  0.55003389  0.94911396
   0.54945225  0.43892843  0.05281616
   0.45070301  0.88952247  0.94700015
   0.55593820  0.78064756  0.05029340
   0.77504954  0.21833888  0.94870652
   0.88761226  0.10941986  0.04787225
   0.77988338  0.55599842  0.94555540
   0.88729091  0.44645406  0.05610418
   0.77957742  0.89322994  0.95027908
   0.89279530  0.78162395  0.05140286
unknown system                          
           1
     8.238876    4.745478    0.000000
    -8.249223    4.763408    0.000000
     0.000000    0.000000   30.000000
   V    Mo   W    S 
   3   3   3  18
Direct configuration=    16
   0.33938435  0.33634340 -0.00019580
   0.65984489 -0.00334723  0.00018886
  -0.00060370 -0.00546270 -0.00000472
   0.99972903  0.35311527 -0.00000410
   0.33656614 -0.00418075 -0.00003320
   0.66386676  0.65970537  0.00000451
  -0.00065647  0.65378006 -0.00001539
   0.32454836  0.66575324 -0.00004607
   0.67610394  0.34131724  0.00001780
   0.11164661  0.22127530  0.95184267
   0.22021443  0.11361216  0.04973542
   0.11303896  0.55924950  0.94419220
   0.22454765  0.44274739  0.05164219
   0.10756328  0.88870776  0.94904786
   0.22098610  0.77656418  0.05366841
   0.44361734  0.22593186  0.94918479
   0.56109390  0.10987813  0.05186329
   0.43897548  0.54872068  0.94829252
   0.54900528  0.43866730  0.05246915
   0.45127685  0.88974829  0.94726296
   0.55650398  0.78227087  0.05101216
   0.77523936  0.21795310  0.94820096
   0.88792180  0.10935617  0.04826810
   0.77875764  0.55548329  0.94624724
   0.88700848  0.44622979  0.05597232
   0.77957469  0.89356610  0.95009796
   0.89245934  0.78122866  0.05108778
unknown system                          
           1
     8.246240    4.743956    0.000000
    -8.260932    4.769408    0.000000
     0.000000    0.000000   30.000000
   V    Mo   W    S 
   3   3   3  18
Direct configuration=    17
   0.33893986  0.33645745 -0.00016228
   0.66042554 -0.00264968  0.00016473
  -0.00064649 -0.00560386 -0.00000803
   0.99963091  0.35287811 -0.00000486
   0.33820833 -0.00182121 -0.00003858
   0.66220078  0.66039536  0.00001227
  -0.00066189  0.65325688 -0.00000772
   0.32541836  0.66479580 -0.00002101
   0.67526624  0.33949282  0.00000094
   0.11152638  0.22116288  0.95175645
   0.22023223  0.11372381  0.04977846
   0.11314106  0.55924904  0.94421941
   0.22444107  0.44249278  0.05176318
   0.10772293  0.88867123  0.94915934
   0.22134123  0.77678728  0.05342928
   0.44348526  0.22631803  0.94895901
   0.56134557  0.10972261  0.05214543
   0.43872027  0.54828832  0.94801180
   0.54883691  0.43858490  0.05237222
   0.45145754  0.88983952  0.94736395
   0.55664853  0.78278905  0.05123229
   0.77532124  0.21781253  0.94805181
   0.88804739  0.10935367  0.04837742
   0.77840930  0.55535417  0.94647406
   0.88690706  0.44614820  0.05594735
   0.77955437  0.89366488  0.95004757
   0.89229450  0.78104989  0.05097537
unknown system                          
           1
     8.256073    4.747484    0.000000
    -8.272564    4.776052    0.000000
     0.000000    0.000000   30.000000
   V    Mo   W    S 
   3   3   3  18
Direct configuration=    18
   0.33837804  0.33620935 -0.00008730
   0.66121034 -0.00210314  0.00011156
  -0.00071410 -0.00627868 -0.00001984
   0.99943034  0.35328455 -0.00000831
   0.34173253  0.00332892 -0.00008385
   0.65888278  0.66220964  0.00007332
  -0.00068818  0.65176426  0.00000066
   0.32672969  0.66287632 -0.00003828
   0.67405625  0.33616223  0.00004567
   0.11110925  0.22092370  0.95179343
   0.22045103  0.11403844  0.04982770
   0.11332340  0.55930813  0.94420026
   0.22416861  0.44189442  0.05186723
   0.10829563  0.88852240  0.94946105
   0.22184283  0.77730041  0.05287160
   0.44360921  0.22702567  0.94858160
   0.56190026  0.10960964  0.05248690
   0.43813280  0.54760765  0.94760532
   0.54848159  0.43851582  0.05216602
   0.45174024  0.89011125  0.94768649
   0.55651765  0.78343095  0.05150191
   0.77558047  0.21756584  0.94795449
   0.88850071  0.10954394  0.04834422
   0.77793811  0.55534050  0.94700290
   0.88664900  0.44597965  0.05595205
   0.77931278  0.89370464  0.95003817
   0.89164319  0.78033795  0.05066494
unknown system                          
           1
     8.261872    4.748783    0.000000
    -8.280108    4.780373    0.000000
     0.000000    0.000000   30.000000
   V    Mo   W    S 
   3   3   3  18
Direct configuration=    19
   0.33872591  0.33569272 -0.00008647
   0.66094038 -0.00293533  0.00011237
  -0.00069870 -0.00673388 -0.00002214
   0.99946052  0.35402857 -0.00000472
   0.34244823  0.00479527 -0.00009590
   0.65828966  0.66298057  0.00008367
  -0.00076123  0.65108866 -0.00000994
   0.32658764  0.66244493 -0.00006503
   0.67412608  0.33585495  0.00006836
   0.11090137  0.22084570  0.95200576
   0.22056411  0.11403714  0.04981369
   0.11336248  0.55939070  0.94409868
   0.22409861  0.44185127  0.05174232
   0.10857447  0.88845946  0.94954448
   0.22182030  0.77749617  0.05272247
   0.44402637  0.22716891  0.94856621
   0.56205960  0.10974236  0.05239878
   0.43797702  0.54763188  0.94768846
   0.54858400  0.43867858  0.05211250
   0.45159840  0.89016526  0.94776950
   0.55610408  0.78321275  0.05148008
   0.77566584  0.21760250  0.94809649
   0.88872708  0.10969249  0.04810872
   0.77794487  0.55550985  0.94715603
   0.88656310  0.44596702  0.05605388
   0.77918337  0.89356594  0.95007062
   0.89134087  0.77998002  0.05059106
unknown system                          
           1
     8.257730    4.747680    0.000000
    -8.274715    4.777101    0.000000
     0.000000    0.000000   30.000000
   V    Mo   W    S 
   3   3   3  18
Direct configuration=    20
   0.33929904  0.33498048 -0.00006971
   0.66037525 -0.00422704  0.00009495
  -0.00068987 -0.00732829 -0.00002325
   0.99951997  0.35500064 -0.00000288
   0.34280845  0.00588937 -0.00009176
   0.65808991  0.66375878  0.00009200
  -0.00084285  0.65039448 -0.00000341
   0.32618505  0.66229069 -0.00010021
   0.67442745  0.33602828  0.00011367
   0.11073051  0.22080226  0.95225494
   0.22065509  0.11401752  0.04981158
   0.11334478  0.55947304  0.94401862
   0.22406078  0.44183543  0.05159009
   0.10877351  0.88837994  0.94961835
   0.22171027  0.77765991  0.05257861
   0.44448424  0.22733660  0.94853043
   0.56219040  0.10983965  0.05228070
   0.43785886  0.54765407  0.94780524
   0.54873399  0.43889334  0.05205759
   0.45142610  0.89022439  0.94783964
   0.55564828  0.78295599  0.05148384
   0.77573358  0.21763105  0.94826631
   0.88891909  0.10983520  0.04784123
   0.77801277  0.55573170  0.94728045
   0.88654256  0.44602453  0.05612428
   0.77908520  0.89343958  0.95008092
   0.89113203  0.77969286  0.05052768
unknown system                          
           1
     8.265462    4.751009    0.000000
    -8.283698    4.782600    0.000000
     0.000000    0.000000   30.000000
   V    Mo   W    S 
   3   3   3  18
Direct configuration=    21
   0.33891796  0.33549120 -0.00007546
   0.66073000 -0.00334722  0.00010461
  -0.00069502 -0.00692317 -0.00002049
   0.99947693  0.35443335 -0.00000362
   0.34244219  0.00492828 -0.00009319
   0.65836299  0.66317756  0.00009226
  -0.00078414  0.65085875 -0.00000134
   0.32634570  0.66243527 -0.00008206
   0.67435084  0.33604798  0.00009689
   0.11083890  0.22083160  0.95209719
   0.22060729  0.11401844  0.04979192
   0.11335472  0.55941153  0.94407916
   0.22408758  0.44187417  0.05167440
   0.10864964  0.88843929  0.94957006
   0.22175091  0.77751995  0.05268023
   0.44420437  0.22717667  0.94858907
   0.56208064  0.10981031  0.05232287
   0.43795920  0.54770582  0.94775481
   0.54864682  0.43875144  0.05208833
   0.45153269  0.89017622  0.94780153
   0.55593139  0.78306955  0.05143900
   0.77568561  0.21763221  0.94817351
   0.88879034  0.10974509  0.04800451
   0.77800059  0.55559004  0.94718943
   0.88655608  0.44598898  0.05606384
   0.77913310  0.89349779  0.95009795
   0.89125712  0.77987333  0.05056447
unknown system                          
           1
     8.255231    4.749337    0.000000
    -8.269526    4.774097    0.000000
     0.000000    0.000000   30.000000
   V    Mo   W    S 
   3   3   3  18
Direct configuration=    22
   0.33940201  0.33490434 -0.00008176
   0.66027569 -0.00440364  0.00009978
  -0.00066332 -0.00737104 -0.00002437
   0.99955320  0.35508246 -0.00000374
   0.34262355  0.00570454 -0.00009455
   0.65826627  0.66371277  0.00008622
  -0.00084079  0.65043803 -0.00001082
   0.32603201  0.66239644 -0.00010695
   0.67453134  0.33628265  0.00010959
   0.11072011  0.22081799  0.95229094
   0.22064791  0.11400468  0.04981146
   0.11332477  0.55948752  0.94399057
   0.22406292  0.44184824  0.05157102
   0.10874809  0.88835812  0.94960459
   0.22165971  0.77764741  0.05260902
   0.44454344  0.22732236  0.94855587
   0.56218017  0.10985345  0.05225358
   0.43787126  0.54768177  0.94784216
   0.54875849  0.43891130  0.05207642
   0.45138658  0.89020955  0.94781939
   0.55558472  0.78287792  0.05146573
   0.77573936  0.21764864  0.94828943
   0.88893913  0.10986854  0.04780397
   0.77805999  0.55576441  0.94725713
   0.88655863  0.44604532  0.05615771
   0.77909480  0.89342898  0.95008239
   0.89115442  0.77969172  0.05054512
unknown system                          
           1
     8.263094    4.750912    0.000000
    -8.280122    4.780410    0.000000
     0.000000    0.000000   30.000000
   V    Mo   W    S 
   3   3   3  18
Direct configuration=    23
   0.33847952  0.33628332 -0.00011605
   0.66113570 -0.00211773  0.00013779
  -0.00057829 -0.00632958 -0.00001358
   0.99951626  0.35387653 -0.00000115
   0.34096983  0.00216302 -0.00009505
   0.65960926  0.66173682  0.00008640
  -0.00063493  0.65180288  0.00000090
   0.32589370  0.66305106 -0.00007455
   0.67477482  0.33714867  0.00008642
   0.11098403  0.22093460  0.95195415
   0.22050991  0.11396001  0.04969420
   0.11328344  0.55933804  0.94413255
   0.22414660  0.44204150  0.05172467
   0.10832004  0.88847756  0.94945705
   0.22162729  0.77715894  0.05295130
   0.44389686  0.22676702  0.94885595
   0.56180289  0.10984478  0.05224331
   0.43821157  0.54796940  0.94783078
   0.54854885  0.43851425  0.05217633
   0.45160297  0.89001527  0.94769859
   0.55622678  0.78294472  0.05120092
   0.77561638  0.21774176  0.94811946
   0.88864543  0.10971276  0.04814572
   0.77816744  0.55542309  0.94695171
   0.88665534  0.44602592  0.05600121
   0.77923988  0.89352425  0.95020040
   0.89156286  0.78020559  0.05065047
unknown system                          
           1
     8.263712    4.751185    0.000000
    -8.280845    4.780864    0.000000
     0.000000    0.000000   30.000000
   V    Mo   W    S 
   3   3   3  18
Direct configuration=    24
   0.33917156  0.33541817 -0.00011081
   0.66041968 -0.00370870  0.00012772
  -0.00061025 -0.00707500 -0.00001888
   0.99955377  0.35479925 -0.00000329
   0.34146040  0.00344654 -0.00008669
   0.65934813  0.66265464  0.00008138
  -0.00074246  0.65110180 -0.00000538
   0.32556263  0.66300188 -0.00010790
   0.67503388  0.33733812  0.00011467
   0.11079706  0.22090700  0.95222837
   0.22060487  0.11393172  0.04974343
   0.11323854  0.55945833  0.94399895
   0.22409967  0.44201935  0.05158472
   0.10852856  0.88837902  0.94951168
   0.22152510  0.77738691  0.05281683
   0.44440671  0.22700937  0.94875929
   0.56196709  0.10989068  0.05214832
   0.43806682  0.54792640  0.94792884
   0.54871314  0.43875244  0.05215402
   0.45142791  0.89009881  0.94774600