   27   27  100    1
  0.9710400E+02  0.1002848E-08  0.1002848E-08  0.3000000E-08  0.5000000E-15
  1.000000000000000E-004
  CAR 
 unknown system                          
    159     34    120
 
  0.0000000E+00  0.0000000E+00  0.0000000E+00  0.1562500E-01
    1      -17.816344   1.000000
    2      -16.780589   1.000000
    3      -16.638239   1.000000
    4      -16.581127   1.000000
    5      -16.554434   1.000000
    6      -16.483500   1.000000
    7      -16.361801   1.000000
    8      -16.269487   1.000000
    9      -16.218463   1.000000
   10      -16.187701   1.000000
   11      -16.091654   1.000000
   12      -15.923383   1.000000
   13      -15.847913   1.000000
   14      -15.720165   1.000000
   15      -15.572900   1.000000
   16      -15.510927   1.000000
   17      -15.328072   1.000000
   18      -15.248560   1.000000
   19       -9.255983   1.000000
   20       -9.013488   1.000000
   21       -8.923620   1.000000
   22       -8.863489   1.000000
   23       -8.790635   1.000000
   24       -8.777898   1.000000
   25       -8.669115   1.000000
   26       -8.600028   1.000000
   27       -8.515254   1.000000
   28       -8.438185   1.000000
   29       -8.423672   1.000000
   30       -8.379007   1.000000
   31       -8.309681   1.000000
   32       -8.193071   1.000000
   33       -8.145236   1.000000
   34       -8.038850   1.000000
   35       -7.785828   1.000000
   36       -7.780984   1.000000
   37       -7.700074   1.000000
   38       -7.554991   1.000000
   39       -7.439340   1.000000
   40       -7.363826   1.000000
   41       -7.353599   1.000000
   42       -7.156401   1.000000
   43       -7.135584   1.000000
   44       -6.958782   1.000000
   45       -6.879183   1.000000
   46       -6.812218   1.000000
   47       -6.751218   1.000000
   48       -6.675232   1.000000
   49       -6.619579   1.000000
   50       -6.536339   1.000000
   51       -6.454660   1.000000
   52       -6.327045   1.000000
   53       -6.253944   1.000000
   54       -6.197246   1.000000
   55       -6.157325   1.000000
   56       -6.107378   1.000000
   57       -5.971346   1.000000
   58       -5.842797   1.000000
   59       -5.686742   1.000000
   60       -5.647270   1.000000
   61       -5.562882   1.000000
   62       -5.436410   1.000000
   63       -5.348352   1.000000
   64       -5.108255   1.000000
   65       -5.063602   1.000000
   66       -4.956862   1.000000
   67       -4.887117   1.000000
   68       -4.859035   1.000000
   69       -4.777716   1.000000
   70       -4.754018   1.000000
   71       -4.723610   1.000000
   72       -4.596581   1.000000
   73       -4.428573   1.000000
   74       -4.281042   1.000000
   75       -4.158103   1.000000
   76       -4.123361   1.000000
   77       -3.769997   0.999633
   78       -3.571432   0.975704
   79       -3.486144   0.914511
   80       -3.321905   0.582278
   81       -3.195261   0.245794
   82       -2.829401   0.000529
   83       -2.753043   0.000068
   84       -2.604623   0.000001
   85       -2.540955   0.000000
   86       -2.433550   0.000000
   87       -2.236366   0.000000
   88       -2.187371   0.000000
   89       -2.150693   0.000000
   90       -1.930839   0.000000
   91       -1.697298   0.000000
   92       -1.648201   0.000000
   93       -1.363388   0.000000
   94       -1.234303   0.000000
   95       -1.195336   0.000000
   96       -1.105131   0.000000
   97       -0.976660   0.000000
   98       -0.920121   0.000000
   99       -0.834511   0.000000
  100       -0.662069   0.000000
  101       -0.608780   0.000000
  102       -0.523978   0.000000
  103       -0.441594   0.000000
  104       -0.399024   0.000000
  105       -0.256038   0.000000
  106       -0.163033   0.000000
  107       -0.114981   0.000000
  108       -0.010214   0.000000
  109        0.015225   0.000000
  110        0.145856   0.000000
  111        0.361795   0.000000
  112        0.417792   0.000000
  113        0.821204   0.000000
  114        0.871401   0.000000
  115        1.013765   0.000000
  116        1.146041   0.000000
  117        1.267655   0.000000
  118        1.645295   0.000000
  119        1.842785   0.000000
  120        2.166463   0.000000
 
  0.1250000E+00  0.2775558E-16  0.0000000E+00  0.3125000E-01
    1      -17.790662   1.000000
    2      -16.791506   1.000000
    3      -16.769637   1.000000
    4      -16.612913   1.000000
    5      -16.532827   1.000000
    6      -16.433872   1.000000
    7      -16.355787   1.000000
    8      -16.336593   1.000000
    9      -16.194067   1.000000
   10      -16.089623   1.000000
   11      -16.050821   1.000000
   12      -15.936072   1.000000
   13      -15.825117   1.000000
   14      -15.712789   1.000000
   15      -15.577864   1.000000
   16      -15.513523   1.000000
   17      -15.348150   1.000000
   18      -15.252125   1.000000
   19       -9.251042   1.000000
   20       -9.153422   1.000000
   21       -9.056253   1.000000
   22       -8.971385   1.000000
   23       -8.797989   1.000000
   24       -8.733998   1.000000
   25       -8.652575   1.000000
   26       -8.608774   1.000000
   27       -8.558608   1.000000
   28       -8.462374   1.000000
   29       -8.360102   1.000000
   30       -8.311414   1.000000
   31       -8.243558   1.000000
   32       -8.107146   1.000000
   33       -8.027535   1.000000
   34       -7.896349   1.000000
   35       -7.846885   1.000000
   36       -7.749281   1.000000
   37       -7.651358   1.000000
   38       -7.578166   1.000000
   39       -7.462220   1.000000
   40       -7.375244   1.000000
   41       -7.294207   1.000000
   42       -7.207256   1.000000
   43       -7.119443   1.000000
   44       -6.980359   1.000000
   45       -6.934731   1.000000
   46       -6.806075   1.000000
   47       -6.738565   1.000000
   48       -6.697033   1.000000
   49       -6.598640   1.000000
   50       -6.529182   1.000000
   51       -6.482538   1.000000
   52       -6.315886   1.000000
   53       -6.282825   1.000000
   54       -6.254898   1.000000
   55       -6.140807   1.000000
   56       -6.029352   1.000000
   57       -5.968251   1.000000
   58       -5.824948   1.000000
   59       -5.675578   1.000000
   60       -5.607358   1.000000
   61       -5.533508   1.000000
   62       -5.432951   1.000000
   63       -5.359566   1.000000
   64       -5.194561   1.000000
   65       -5.137050   1.000000
   66       -5.034190   1.000000
   67       -4.972844   1.000000
   68       -4.937439   1.000000
   69       -4.888755   1.000000
   70       -4.693402   1.000000
   71       -4.572431   1.000000
   72       -4.483310   1.000000
   73       -4.373811   1.000000
   74       -4.260356   1.000000
   75       -4.137809   1.000000
   76       -4.036904   1.000000
   77       -3.840937   0.999947
   78       -3.676094   0.996658
   79       -3.502939   0.931602
   80       -3.437183   0.846814
   81       -3.055639   0.046961
   82       -2.823185   0.000452
   83       -2.749158   0.000061
   84       -2.607744   0.000001
   85       -2.516381   0.000000
   86       -2.423433   0.000000
   87       -2.242261   0.000000
   88       -2.175391   0.000000
   89       -2.128737   0.000000
   90       -1.915469   0.000000
   91       -1.703540   0.000000
   92       -1.624464   0.000000
   93       -1.376110   0.000000
   94       -1.243354   0.000000
   95       -1.183717   0.000000
   96       -1.089999   0.000000
   97       -0.983763   0.000000
   98       -0.920558   0.000000
   99       -0.842115   0.000000
  100       -0.751499   0.000000
  101       -0.659641   0.000000
  102       -0.564399   0.000000
  103       -0.492438   0.000000
  104       -0.429602   0.000000
  105       -0.262213   0.000000
  106       -0.233261   0.000000
  107       -0.132591   0.000000
  108       -0.040321   0.000000
  109       -0.002464   0.000000
  110        0.194642   0.000000
  111        0.281859   0.000000
  112        0.531680   0.000000
  113        0.816979   0.000000
  114        0.932638   0.000000
  115        0.992685   0.000000
  116        1.171078   0.000000
  117        1.271039   0.000000
  118        1.691020   0.000000
  119        1.881310   0.000000
  120        2.201836   0.000000
 
  0.2500000E+00  0.5551115E-16  0.0000000E+00  0.3125000E-01
    1      -17.714599   1.000000
    2      -16.997002   1.000000
    3      -16.788875   1.000000
    4      -16.651360   1.000000
    5      -16.567936   1.000000
    6      -16.457211   1.000000
    7      -16.328259   1.000000
    8      -16.284653   1.000000
    9      -16.143239   1.000000
   10      -16.024214   1.000000
   11      -15.990313   1.000000
   12      -15.911538   1.000000
   13      -15.787682   1.000000
   14      -15.691943   1.000000
   15      -15.579849   1.000000
   16      -15.515857   1.000000
   17      -15.393296   1.000000
   18      -15.268494   1.000000
   19       -9.492344   1.000000
   20       -9.224449   1.000000
   21       -9.141240   1.000000
   22       -9.086221   1.000000
   23       -8.855629   1.000000
   24       -8.790987   1.000000
   25       -8.663250   1.000000
   26       -8.564862   1.000000
   27       -8.476866   1.000000
   28       -8.453190   1.000000
   29       -8.286572   1.000000
   30       -8.248406   1.000000
   31       -8.154468   1.000000
   32       -8.051232   1.000000
   33       -7.914545   1.000000
   34       -7.829085   1.000000
   35       -7.781486   1.000000
   36       -7.680284   1.000000
   37       -7.571038   1.000000
   38       -7.514557   1.000000
   39       -7.444805   1.000000
   40       -7.398708   1.000000
   41       -7.317795   1.000000
   42       -7.201791   1.000000
   43       -7.076000   1.000000
   44       -6.969954   1.000000
   45       -6.945527   1.000000
   46       -6.817627   1.000000
   47       -6.777640   1.000000
   48       -6.686594   1.000000
   49       -6.598770   1.000000
   50       -6.507587   1.000000
   51       -6.451871   1.000000
   52       -6.334844   1.000000
   53       -6.306238   1.000000
   54       -6.238571   1.000000
   55       -6.133591   1.000000
   56       -6.037526   1.000000
   57       -5.886570   1.000000
   58       -5.826303   1.000000
   59       -5.719940   1.000000
   60       -5.602058   1.000000
   61       -5.534595   1.000000
   62       -5.484300   1.000000
   63       -5.457284   1.000000
   64       -5.325053   1.000000
   65       -5.216739   1.000000
   66       -5.159892   1.000000
   67       -5.071670   1.000000
   68       -4.923441   1.000000
   69       -4.826646   1.000000
   70       -4.646262   1.000000
   71       -4.501591   1.000000
   72       -4.376948   1.000000
   73       -4.292988   1.000000
   74       -4.230893   1.000000
   75       -4.078193   1.000000
   76       -4.020634   1.000000
   77       -3.952595   0.999998
   78       -3.805876   0.999858
   79       -3.581973   0.979655
   80       -3.399874   0.776088
   81       -2.977736   0.013010
   82       -2.815496   0.000372
   83       -2.741502   0.000049
   84       -2.590424   0.000000
   85       -2.467405   0.000000
   86       -2.405827   0.000000
   87       -2.259780   0.000000
   88       -2.162492   0.000000
   89       -2.022336   0.000000
   90       -1.890629   0.000000
   91       -1.709507   0.000000
   92       -1.580149   0.000000
   93       -1.395344   0.000000
   94       -1.259774   0.000000
   95       -1.186766   0.000000
   96       -1.080110   0.000000
   97       -1.009812   0.000000
   98       -0.950038   0.000000
   99       -0.882989   0.000000
  100       -0.864851   0.000000
  101       -0.762767   0.000000
  102       -0.647546   0.000000
  103       -0.581833   0.000000
  104       -0.488829   0.000000
  105       -0.405492   0.000000
  106       -0.301090   0.000000
  107       -0.172957   0.000000
  108       -0.127053   0.000000
  109       -0.012957   0.000000
  110        0.148057   0.000000
  111        0.304571   0.000000
  112        0.694241   0.000000
  113        0.784639   0.000000
  114        0.983659   0.000000
  115        0.997846   0.000000
  116        1.187006   0.000000
  117        1.386783   0.000000
  118        1.816223   0.000000
  119        1.991910   0.000000
  120        2.306647   0.000000
 
  0.3750000E+00  0.0000000E+00  0.0000000E+00  0.3125000E-01
    1      -17.591646   1.000000
    2      -17.217395   1.000000
    3      -16.804539   1.000000
    4      -16.661508   1.000000
    5      -16.605765   1.000000
    6      -16.500333   1.000000
    7      -16.297873   1.000000
    8      -16.224592   1.000000
    9      -16.099312   1.000000
   10      -16.006424   1.000000
   11      -15.928880   1.000000
   12      -15.867013   1.000000
   13      -15.791138   1.000000
   14      -15.672170   1.000000
   15      -15.584286   1.000000
   16      -15.497646   1.000000
   17      -15.416154   1.000000
   18      -15.301260   1.000000
   19       -9.711967   1.000000
   20       -9.314163   1.000000
   21       -9.234861   1.000000
   22       -9.012248   1.000000
   23       -8.926842   1.000000
   24       -8.839300   1.000000
   25       -8.604466   1.000000
   26       -8.542424   1.000000
   27       -8.451320   1.000000
   28       -8.381727   1.000000
   29       -8.253927   1.000000
   30       -8.214215   1.000000
   31       -8.099714   1.000000
   32       -8.034479   1.000000
   33       -7.959733   1.000000
   34       -7.869537   1.000000
   35       -7.718578   1.000000
   36       -7.664122   1.000000
   37       -7.598503   1.000000
   38       -7.528212   1.000000
   39       -7.383163   1.000000
   40       -7.288086   1.000000
   41       -7.252459   1.000000
   42       -7.148521   1.000000
   43       -7.042420   1.000000
   44       -6.942593   1.000000
   45       -6.846584   1.000000
   46       -6.809150   1.000000
   47       -6.725775   1.000000
   48       -6.673431   1.000000
   49       -6.577924   1.000000
   50       -6.472557   1.000000
   51       -6.376392   1.000000
   52       -6.335017   1.000000
   53       -6.241825   1.000000
   54       -6.190321   1.000000
   55       -6.110438   1.000000
   56       -6.066898   1.000000
   57       -6.024978   1.000000
   58       -5.987792   1.000000
   59       -5.772910   1.000000
   60       -5.745819   1.000000
   61       -5.612671   1.000000
   62       -5.533054   1.000000
   63       -5.473788   1.000000
   64       -5.337264   1.000000
   65       -5.252427   1.000000
   66       -5.114395   1.000000
   67       -5.055157   1.000000
   68       -4.886805   1.000000
   69       -4.817052   1.000000
   70       -4.683522   1.000000
   71       -4.555867   1.000000
   72       -4.445342   1.000000
   73       -4.297689   1.000000
   74       -4.206682   1.000000
   75       -4.100548   1.000000
   76       -3.954823   0.999999
   77       -3.892276   0.999989
   78       -3.775525   0.999681
   79       -3.648977   0.994140
   80       -3.334249   0.616006
   81       -2.975862   0.012572
   82       -2.812166   0.000341
   83       -2.736691   0.000042
   84       -2.575543   0.000000
   85       -2.435620   0.000000
   86       -2.374129   0.000000
   87       -2.255939   0.000000
   88       -2.138127   0.000000
   89       -1.906789   0.000000
   90       -1.858523   0.000000
   91       -1.717805   0.000000
   92       -1.561816   0.000000
   93       -1.410518   0.000000
   94       -1.284922   0.000000
   95       -1.207150   0.000000
   96       -1.168198   0.000000
   97       -1.022178   0.000000
   98       -0.961164   0.000000
   99       -0.928537   0.000000
  100       -0.882602   0.000000
  101       -0.834704   0.000000
  102       -0.776878   0.000000
  103       -0.617721   0.000000
  104       -0.586668   0.000000
  105       -0.457322   0.000000
  106       -0.418668   0.000000
  107       -0.258448   0.000000
  108       -0.178132   0.000000
  109       -0.033306   0.000000
  110        0.113705   0.000000
  111        0.348173   0.000000
  112        0.663221   0.000000
  113        0.884869   0.000000
  114        0.988120   0.000000
  115        1.019885   0.000000
  116        1.228129   0.000000
  117        1.524869   0.000000
  118        2.001630   0.000000
  119        2.164818   0.000000
  120        2.477323   0.000000
 
  0.5000000E+00  0.1110223E-15  0.0000000E+00  0.1562500E-01
    1      -17.454270   1.000000
    2      -17.389161   1.000000
    3      -16.812336   1.000000
    4      -16.660775   1.000000
    5      -16.618925   1.000000
    6      -16.518117   1.000000
    7      -16.287536   1.000000
    8      -16.204048   1.000000
    9      -16.078694   1.000000
   10      -16.011723   1.000000
   11      -15.863226   1.000000
   12      -15.843783   1.000000
   13      -15.833186   1.000000
   14      -15.669368   1.000000
   15      -15.591514   1.000000
   16      -15.501213   1.000000
   17      -15.382337   1.000000
   18      -15.335749   1.000000
   19       -9.791051   1.000000
   20       -9.351675   1.000000
   21       -9.269047   1.000000
   22       -8.980198   1.000000
   23       -8.947291   1.000000
   24       -8.821959   1.000000
   25       -8.595126   1.000000
   26       -8.558186   1.000000
   27       -8.461240   1.000000
   28       -8.358415   1.000000
   29       -8.223577   1.000000
   30       -8.125080   1.000000
   31       -8.101489   1.000000
   32       -8.037115   1.000000
   33       -7.989086   1.000000
   34       -7.915021   1.000000
   35       -7.742687   1.000000
   36       -7.676320   1.000000
   37       -7.612083   1.000000
   38       -7.555471   1.000000
   39       -7.367362   1.000000
   40       -7.296960   1.000000
   41       -7.201229   1.000000
   42       -7.068656   1.000000
   43       -6.964625   1.000000
   44       -6.943421   1.000000
   45       -6.819345   1.000000
   46       -6.727017   1.000000
   47       -6.642255   1.000000
   48       -6.582262   1.000000
   49       -6.528067   1.000000
   50       -6.520152   1.000000
   51       -6.407702   1.000000
   52       -6.397479   1.000000
   53       -6.306100   1.000000
   54       -6.249320   1.000000
   55       -6.153303   1.000000
   56       -6.098173   1.000000
   57       -6.043567   1.000000
   58       -5.878793   1.000000
   59       -5.760072   1.000000
   60       -5.743824   1.000000
   61       -5.665533   1.000000
   62       -5.532082   1.000000
   63       -5.491042   1.000000
   64       -5.419943   1.000000
   65       -5.285845   1.000000
   66       -5.062262   1.000000
   67       -5.038073   1.000000
   68       -4.996084   1.000000
   69       -4.832450   1.000000
   70       -4.661384   1.000000
   71       -4.576219   1.000000
   72       -4.441832   1.000000
   73       -4.341610   1.000000
   74       -4.181853   1.000000
   75       -4.122303   1.000000
   76       -3.879975   0.999984
   77       -3.843028   0.999950
   78       -3.747794   0.999357
   79       -3.706709   0.998298
   80       -3.306758   0.540074
   81       -2.964054   0.010099
   82       -2.835164   0.000610
   83       -2.734141   0.000039
   84       -2.564919   0.000000
   85       -2.432119   0.000000
   86       -2.352365   0.000000
   87       -2.245627   0.000000
   88       -2.126421   0.000000
   89       -1.868251   0.000000
   90       -1.828096   0.000000
   91       -1.725711   0.000000
   92       -1.564929   0.000000
   93       -1.403483   0.000000
   94       -1.326412   0.000000
   95       -1.243124   0.000000
   96       -1.171229   0.000000
   97       -1.002590   0.000000
   98       -0.993589   0.000000
   99       -0.932478   0.000000
  100       -0.887218   0.000000
  101       -0.863379   0.000000
  102       -0.824349   0.000000
  103       -0.640929   0.000000
  104       -0.612376   0.000000
  105       -0.525491   0.000000
  106       -0.434783   0.000000
  107       -0.293615   0.000000
  108       -0.190752   0.000000
  109       -0.047487   0.000000
  110        0.108256   0.000000
  111        0.359214   0.000000
  112        0.639548   0.000000
  113        0.930000   0.000000
  114        0.983570   0.000000
  115        1.033637   0.000000
  116        1.251412   0.000000
  117        1.579148   0.000000
  118        2.232439   0.000000
  119        2.241414   0.000000
  120        2.379561   0.000000
 
  0.0000000E+00  0.1250000E+00  0.0000000E+00  0.3125000E-01
    1      -17.791006   1.000000
    2      -16.790041   1.000000
    3      -16.767621   1.000000
    4      -16.612590   1.000000
    5      -16.524891   1.000000
    6      -16.439378   1.000000
    7      -16.386616   1.000000
    8      -16.314580   1.000000
    9      -16.201067   1.000000
   10      -16.075524   1.000000
   11      -16.055171   1.000000
   12      -15.936334   1.000000
   13      -15.823543   1.000000
   14      -15.713368   1.000000
   15      -15.575648   1.000000
   16      -15.516344   1.000000
   17      -15.345765   1.000000
   18      -15.254360   1.000000
   19       -9.254483   1.000000
   20       -9.109320   1.000000
   21       -9.055592   1.000000
   22       -8.983848   1.000000
   23       -8.830483   1.000000
   24       -8.737736   1.000000
   25       -8.697787   1.000000
   26       -8.617033   1.000000
   27       -8.520553   1.000000
   28       -8.438732   1.000000
   29       -8.351708   1.000000
   30       -8.321225   1.000000
   31       -8.261236   1.000000
   32       -8.102797   1.000000
   33       -8.027269   1.000000
   34       -7.884035   1.000000
   35       -7.837851   1.000000
   36       -7.760830   1.000000
   37       -7.684107   1.000000
   38       -7.536931   1.000000
   39       -7.443384   1.000000
   40       -7.367493   1.000000
   41       -7.312195   1.000000
   42       -7.219921   1.000000
   43       -7.143501   1.000000
   44       -6.971657   1.000000
   45       -6.886478   1.000000
   46       -6.832720   1.000000
   47       -6.766110   1.000000
   48       -6.698959   1.000000
   49       -6.606129   1.000000
   50       -6.536551   1.000000
   51       -6.448272   1.000000
   52       -6.296500   1.000000
   53       -6.277033   1.000000
   54       -6.241185   1.000000
   55       -6.150286   1.000000
   56       -6.050992   1.000000
   57       -5.952318   1.000000
   58       -5.826010   1.000000
   59       -5.694636   1.000000
   60       -5.607916   1.000000
   61       -5.523395   1.000000
   62       -5.423052   1.000000
   63       -5.373705   1.000000
   64       -5.207567   1.000000
   65       -5.135162   1.000000
   66       -5.056185   1.000000
   67       -4.970435   1.000000
   68       -4.925156   1.000000
   69       -4.847670   1.000000
   70       -4.703772   1.000000
   71       -4.573912   1.000000
   72       -4.489790   1.000000
   73       -4.389899   1.000000
   74       -4.278984   1.000000
   75       -4.122678   1.000000
   76       -4.038604   1.000000
   77       -3.831861   0.999932
   78       -3.657501   0.995071
   79       -3.555777   0.968660
   80       -3.380907   0.733992
   81       -3.080667   0.067055
   82       -2.826907   0.000497
   83       -2.762166   0.000088
   84       -2.582335   0.000000
   85       -2.515660   0.000000
   86       -2.419992   0.000000
   87       -2.241659   0.000000
   88       -2.182597   0.000000
   89       -2.118585   0.000000
   90       -1.924282   0.000000
   91       -1.706288   0.000000
   92       -1.632539   0.000000
   93       -1.358420   0.000000
   94       -1.253655   0.000000
   95       -1.191750   0.000000
   96       -1.093921   0.000000
   97       -0.982106   0.000000
   98       -0.914334   0.000000
   99       -0.836173   0.000000
  100       -0.742694   0.000000
  101       -0.664726   0.000000
  102       -0.566676   0.000000
  103       -0.505229   0.000000
  104       -0.424688   0.000000
  105       -0.362543   0.000000
  106       -0.203676   0.000000
  107       -0.123372   0.000000
  108       -0.019154   0.000000
  109        0.087127   0.000000
  110        0.187693   0.000000
  111        0.338128   0.000000
  112        0.435345   0.000000
  113        0.799262   0.000000
  114        0.929240   0.000000
  115        0.995814   0.000000
  116        1.173031   0.000000
  117        1.289599   0.000000
  118        1.690764   0.000000
  119        1.881034   0.000000
  120        2.201809   0.000000
 
  0.1250000E+00  0.1250000E+00  0.0000000E+00  0.3125000E-01
    1      -17.739794   1.000000
    2      -16.921865   1.000000
    3      -16.780631   1.000000
    4      -16.707226   1.000000
    5      -16.506420   1.000000
    6      -16.432317   1.000000
    7      -16.358369   1.000000
    8      -16.291855   1.000000
    9      -16.160637   1.000000
   10      -16.087253   1.000000
   11      -15.991767   1.000000
   12      -15.897407   1.000000
   13      -15.792831   1.000000
   14      -15.699714   1.000000
   15      -15.564515   1.000000
   16      -15.512622   1.000000
   17      -15.386964   1.000000
   18      -15.272056   1.000000
   19       -9.354421   1.000000
   20       -9.283386   1.000000
   21       -9.119166   1.000000
   22       -9.042846   1.000000
   23       -8.876637   1.000000
   24       -8.754693   1.000000
   25       -8.632805   1.000000
   26       -8.562028   1.000000
   27       -8.499227   1.000000
   28       -8.436272   1.000000
   29       -8.424935   1.000000
   30       -8.276842   1.000000
   31       -8.180035   1.000000
   32       -8.009748   1.000000
   33       -7.965271   1.000000
   34       -7.879308   1.000000
   35       -7.731050   1.000000
   36       -7.703100   1.000000
   37       -7.596083   1.000000
   38       -7.505778   1.000000
   39       -7.435083   1.000000
   40       -7.332352   1.000000
   41       -7.293071   1.000000
   42       -7.214082   1.000000
   43       -7.105605   1.000000
   44       -7.038179   1.000000
   45       -6.950307   1.000000
   46       -6.893630   1.000000
   47       -6.756330   1.000000
   48       -6.677476   1.000000
   49       -6.628601   1.000000
   50       -6.516404   1.000000
   51       -6.434081   1.000000
   52       -6.354685   1.000000
   53       -6.316842   1.000000
   54       -6.222583   1.000000
   55       -6.122127   1.000000
   56       -6.041853   1.000000
   57       -5.876473   1.000000
   58       -5.777519   1.000000
   59       -5.646714   1.000000
   60       -5.595839   1.000000
   61       -5.513435   1.000000
   62       -5.464946   1.000000
   63       -5.348473   1.000000
   64       -5.323130   1.000000
   65       -5.268111   1.000000
   66       -5.185594   1.000000
   67       -5.125419   1.000000
   68       -4.905138   1.000000
   69       -4.817740   1.000000
   70       -4.693215   1.000000
   71       -4.523009   1.000000
   72       -4.381884   1.000000
   73       -4.282846   1.000000
   74       -4.203456   1.000000
   75       -4.104809   1.000000
   76       -4.022898   1.000000
   77       -3.858956   0.999969
   78       -3.801481   0.999840
   79       -3.606319   0.986751
   80       -3.395861   0.767509
   81       -3.010726   0.023150
   82       -2.851532   0.000909
   83       -2.764685   0.000095
   84       -2.551154   0.000000
   85       -2.483244   0.000000
   86       -2.412006   0.000000
   87       -2.287928   0.000000
   88       -2.179894   0.000000
   89       -2.046609   0.000000
   90       -1.894809   0.000000
   91       -1.716935   0.000000
   92       -1.592249   0.000000
   93       -1.380266   0.000000
   94       -1.278071   0.000000
   95       -1.175562   0.000000
   96       -1.079097   0.000000
   97       -0.979258   0.000000
   98       -0.923893   0.000000
   99       -0.863676   0.000000
  100       -0.773874   0.000000
  101       -0.728079   0.000000
  102       -0.654158   0.000000
  103       -0.573863   0.000000
  104       -0.533931   0.000000
  105       -0.401227   0.000000
  106       -0.230202   0.000000
  107       -0.194236   0.000000
  108       -0.069345   0.000000
  109       -0.006094   0.000000
  110        0.142103   0.000000
  111        0.363058   0.000000
  112        0.566295   0.000000
  113        0.722921   0.000000
  114        0.959776   0.000000
  115        1.046324   0.000000
  116        1.216625   0.000000
  117        1.416201   0.000000
  118        1.777491   0.000000
  119        1.954866   0.000000
  120        2.272227   0.000000
 
  0.2500000E+00  0.1250000E+00  0.0000000E+00  0.3125000E-01
    1      -17.639875   1.000000
    2      -17.109063   1.000000
    3      -16.881090   1.000000
    4      -16.685756   1.000000
    5      -16.533773   1.000000
    6      -16.438577   1.000000
    7      -16.311774   1.000000
    8      -16.236060   1.000000
    9      -16.105592   1.000000
   10      -16.064410   1.000000
   11      -15.998997   1.000000
   12      -15.844237   1.000000
   13      -15.777471   1.000000
   14      -15.677388   1.000000
   15      -15.543039   1.000000
   16      -15.501420   1.000000
   17      -15.423577   1.000000
   18      -15.303838   1.000000
   19       -9.598704   1.000000
   20       -9.403614   1.000000
   21       -9.229922   1.000000
   22       -9.023428   1.000000
   23       -8.837244   1.000000
   24       -8.768056   1.000000
   25       -8.579715   1.000000
   26       -8.538179   1.000000
   27       -8.454706   1.000000
   28       -8.396393   1.000000
   29       -8.312709   1.000000
   30       -8.242458   1.000000
   31       -8.169075   1.000000
   32       -8.051181   1.000000
   33       -7.990257   1.000000
   34       -7.896803   1.000000
   35       -7.866742   1.000000
   36       -7.563033   1.000000
   37       -7.532080   1.000000
   38       -7.444795   1.000000
   39       -7.333325   1.000000
   40       -7.290101   1.000000
   41       -7.235632   1.000000
   42       -7.162864   1.000000
   43       -7.092446   1.000000
   44       -7.027522   1.000000
   45       -6.892935   1.000000
   46       -6.868208   1.000000
   47       -6.755614   1.000000