       N       E                     dE             d eps       ncg     rms          rms(c)
DAV:   1     0.112553267384E+04    0.11255E+04   -0.35983E+04  8160   0.577E+02
DAV:   2    -0.160659530010E+01   -0.11271E+04   -0.10848E+04 11240   0.173E+02
DAV:   3    -0.199773006424E+03   -0.19817E+03   -0.19039E+03 10920   0.822E+01
DAV:   4    -0.208976510939E+03   -0.92035E+01   -0.89444E+01 12040   0.262E+01
DAV:   5    -0.209298501057E+03   -0.32199E+00   -0.32116E+00 11240   0.374E+00    0.275E+01
DAV:   6    -0.237716097105E+03   -0.28418E+02   -0.10725E+02 12360   0.599E+01    0.595E+01
DAV:   7    -0.196629733947E+03    0.41086E+02   -0.17688E+02 13480   0.152E+02    0.201E+01
DAV:   8    -0.189653896302E+03    0.69758E+01   -0.17613E+01 12000   0.128E+01    0.129E+01
DAV:   9    -0.188220460881E+03    0.14334E+01   -0.31128E+00 12880   0.615E+00    0.941E+00
DAV:  10    -0.186955161994E+03    0.12653E+01   -0.17566E+00 13360   0.799E+00    0.216E+00
DAV:  11    -0.187024610690E+03   -0.69449E-01   -0.54956E-01 13400   0.249E+00    0.322E+00
DAV:  12    -0.186941943989E+03    0.82667E-01   -0.45641E-01 12840   0.324E+00    0.298E+00
DAV:  13    -0.186885065332E+03    0.56879E-01   -0.24948E-01 12960   0.294E+00    0.202E+00
DAV:  14    -0.186845414064E+03    0.39651E-01   -0.98910E-02 12680   0.170E+00    0.630E-01
DAV:  15    -0.186841988108E+03    0.34260E-02   -0.16925E-02 12560   0.584E-01    0.631E-01
DAV:  16    -0.186840192821E+03    0.17953E-02   -0.10647E-02 13440   0.542E-01    0.438E-01
DAV:  17    -0.186837988832E+03    0.22040E-02   -0.59730E-03 12520   0.375E-01    0.192E-01
DAV:  18    -0.186837679326E+03    0.30951E-03   -0.16050E-03 12240   0.159E-01    0.105E-01
DAV:  19    -0.186837634576E+03    0.44751E-04   -0.63512E-04  9720   0.708E-02
   1 F= -.18683763E+03 E0= -.18666579E+03  d E =-.186838E+03
       N       E                     dE             d eps       ncg     rms          rms(c)
DAV:   1    -0.187492070875E+03   -0.65439E+00   -0.27408E+02  8160   0.351E+01    0.469E+00
DAV:   2    -0.189513078250E+03   -0.20210E+01   -0.20308E+01 11840   0.155E+01    0.103E+01
DAV:   3    -0.189328650851E+03    0.18443E+00   -0.53971E+00 12240   0.130E+01    0.624E+00
DAV:   4    -0.188784173884E+03    0.54448E+00   -0.62048E-01 12160   0.486E+00    0.277E+00
DAV:   5    -0.188829657345E+03   -0.45483E-01   -0.44729E-01 10920   0.400E+00    0.477E+00
DAV:   6    -0.188713230980E+03    0.11643E+00   -0.65357E-01 12240   0.377E+00    0.215E+00
DAV:   7    -0.188700890464E+03    0.12341E-01   -0.23777E-01 11960   0.229E+00    0.246E+00
DAV:   8    -0.188669914155E+03    0.30976E-01   -0.14224E-01 11760   0.213E+00    0.169E+00
DAV:   9    -0.188646722554E+03    0.23192E-01   -0.53445E-02 11680   0.107E+00    0.662E-01
DAV:  10    -0.188643769277E+03    0.29533E-02   -0.70760E-03 10440   0.303E-01    0.325E-01
DAV:  11    -0.188643270305E+03    0.49897E-03   -0.30966E-03 12960   0.253E-01    0.138E-01
DAV:  12    -0.188643283827E+03   -0.13522E-04   -0.11019E-03 10920   0.111E-01    0.107E-01
DAV:  13    -0.188643420909E+03   -0.13708E-03   -0.28497E-04  6840   0.722E-02    0.198E-02
DAV:  14    -0.188643655745E+03   -0.23484E-03   -0.76221E-05  6840   0.289E-02    0.207E-02
DAV:  15    -0.188643719006E+03   -0.63261E-04   -0.25449E-05  8080   0.180E-02
   2 F= -.18864372E+03 E0= -.18850350E+03  d E =-.180608E+01
       N       E                     dE             d eps       ncg     rms          rms(c)
DAV:   1    -0.190595347043E+03   -0.19517E+01   -0.31734E+01  9200   0.143E+01    0.447E+00
DAV:   2    -0.190532909516E+03    0.62438E-01   -0.28068E+00 12040   0.946E+00    0.717E+00
DAV:   3    -0.190072502819E+03    0.46041E+00   -0.13195E+00 12320   0.864E+00    0.425E+00
DAV:   4    -0.189856710252E+03    0.21579E+00   -0.70150E-01 13120   0.435E+00    0.250E+00
DAV:   5    -0.189808658617E+03    0.48052E-01   -0.34672E-01 12240   0.282E+00    0.236E+00
DAV:   6    -0.189755830397E+03    0.52828E-01   -0.11576E-01 12520   0.220E+00    0.718E-01
DAV:   7    -0.189750292289E+03    0.55381E-02   -0.13244E-02 11960   0.538E-01    0.263E-01
DAV:   8    -0.189751203411E+03   -0.91112E-03   -0.50901E-03 11720   0.411E-01    0.419E-01
DAV:   9    -0.189749892282E+03    0.13111E-02   -0.27964E-03 11600   0.325E-01    0.126E-01
DAV:  10    -0.189750284094E+03   -0.39181E-03   -0.92538E-04 10240   0.117E-01    0.127E-01
DAV:  11    -0.189750008162E+03    0.27593E-03   -0.50043E-04 10520   0.759E-02    0.224E-02
DAV:  12    -0.189750055401E+03   -0.47239E-04   -0.66931E-05  6800   0.254E-02
   3 F= -.18975006E+03 E0= -.18963198E+03  d E =-.110634E+01
       N       E                     dE             d eps       ncg     rms          rms(c)
DAV:   1    -0.191358162570E+03   -0.16082E+01   -0.77709E+01  8160   0.201E+01    0.467E+00
DAV:   2    -0.191175511023E+03    0.18265E+00   -0.54468E+00 12960   0.785E+00    0.470E+00
DAV:   3    -0.191324896073E+03   -0.14939E+00   -0.15181E+00 12200   0.919E+00    0.715E+00
DAV:   4    -0.190952346057E+03    0.37255E+00   -0.17347E+00 12200   0.851E+00    0.387E+00
DAV:   5    -0.190932466108E+03    0.19880E-01   -0.77198E-01 11200   0.566E+00    0.357E+00
DAV:   6    -0.190757541825E+03    0.17492E+00   -0.22297E-01 11400   0.319E+00    0.768E-01
DAV:   7    -0.190755608900E+03    0.19329E-02   -0.45910E-02 12560   0.101E+00    0.772E-01
DAV:   8    -0.190754186130E+03    0.14228E-02   -0.23287E-02 12040   0.104E+00    0.680E-01
DAV:   9    -0.190749176172E+03    0.50100E-02   -0.66611E-03 11040   0.561E-01    0.158E-01
DAV:  10    -0.190749535890E+03   -0.35972E-03   -0.15687E-03 10600   0.134E-01    0.134E-01
DAV:  11    -0.190749324311E+03    0.21158E-03   -0.85248E-04 10840   0.113E-01    0.422E-02
DAV:  12    -0.190749347556E+03   -0.23245E-04   -0.13490E-04  6560   0.422E-02
   4 F= -.19074935E+03 E0= -.19064821E+03  d E =-.999292E+00
       N       E                     dE             d eps       ncg     rms          rms(c)
DAV:   1    -0.192074530451E+03   -0.13252E+01   -0.15758E+02  8160   0.280E+01    0.559E+00
DAV:   2    -0.191858989527E+03    0.21554E+00   -0.91266E+00 11600   0.841E+00    0.426E+00
DAV:   3    -0.192343548596E+03   -0.48456E+00   -0.26442E+00 12000   0.102E+01    0.105E+01
DAV:   4    -0.191638908028E+03    0.70464E+00   -0.30699E+00 11800   0.119E+01    0.364E+00
DAV:   5    -0.191590862057E+03    0.48046E-01   -0.69246E-01 12080   0.564E+00    0.403E+00
DAV:   6    -0.191423668574E+03    0.16719E+00   -0.42981E-01 12520   0.443E+00    0.161E+00
DAV:   7    -0.191409955227E+03    0.13713E-01   -0.89946E-02 12440   0.201E+00    0.132E+00
DAV:   8    -0.191397784902E+03    0.12170E-01   -0.52335E-02 11440   0.162E+00    0.656E-01
DAV:   9    -0.191392123826E+03    0.56611E-02   -0.68329E-03 11720   0.482E-01    0.230E-01
DAV:  10    -0.191392111062E+03    0.12765E-04   -0.26227E-03 12120   0.230E-01    0.790E-02
DAV:  11    -0.191392174873E+03   -0.63811E-04   -0.48369E-04 10920   0.869E-02
   5 F= -.19139217E+03 E0= -.19129400E+03  d E =-.642827E+00
       N       E                     dE             d eps       ncg     rms          rms(c)
DAV:   1    -0.191431371595E+03   -0.39261E-01   -0.38969E+00  8160   0.416E+00    0.526E-01
DAV:   2    -0.191471855485E+03   -0.40484E-01   -0.20576E-01 12840   0.221E+00    0.173E+00
DAV:   3    -0.191443081163E+03    0.28774E-01   -0.65711E-02 12440   0.182E+00    0.428E-01
DAV:   4    -0.191443002567E+03    0.78596E-04   -0.89069E-03 11040   0.621E-01    0.431E-01
DAV:   5    -0.191441071230E+03    0.19313E-02   -0.43915E-03 11000   0.500E-01    0.185E-01
DAV:   6    -0.191441025939E+03    0.45290E-04   -0.18443E-03 11480   0.233E-01    0.172E-01
DAV:   7    -0.191441398608E+03   -0.37267E-03   -0.25775E-03 10400   0.331E-01    0.262E-01
DAV:   8    -0.191440697471E+03    0.70114E-03   -0.11531E-03  8960   0.220E-01    0.219E-02
DAV:   9    -0.191440739560E+03   -0.42089E-04   -0.76511E-05  5680   0.304E-02
   6 F= -.19144074E+03 E0= -.19134036E+03  d E =-.485647E-01
       N       E                     dE             d eps       ncg     rms          rms(c)
DAV:   1    -0.191484057531E+03   -0.43360E-01   -0.62909E+00  8160   0.527E+00    0.633E-01
DAV:   2    -0.191536358946E+03   -0.52301E-01   -0.23600E-01 13400   0.239E+00    0.212E+00
DAV:   3    -0.191494169776E+03    0.42189E-01   -0.10238E-01 12480   0.221E+00    0.527E-01
DAV:   4    -0.191493310184E+03    0.85959E-03   -0.12518E-02 10960   0.673E-01    0.468E-01
DAV:   5    -0.191491312859E+03    0.19973E-02   -0.66841E-03 11240   0.607E-01    0.276E-01
DAV:   6    -0.191490902277E+03    0.41058E-03   -0.35033E-03 11360   0.347E-01    0.226E-01
DAV:   7    -0.191491385694E+03   -0.48342E-03   -0.40177E-03 11280   0.410E-01    0.312E-01
DAV:   8    -0.191490379963E+03    0.10057E-02   -0.16725E-03  9560   0.265E-01    0.272E-02
DAV:   9    -0.191490411662E+03   -0.31699E-04   -0.83900E-05  5600   0.341E-02
   7 F= -.19149041E+03 E0= -.19138756E+03  d E =-.496721E-01
       N       E                     dE             d eps       ncg     rms          rms(c)
DAV:   1    -0.191507234207E+03   -0.16854E-01   -0.65143E-01  8160   0.172E+00    0.237E-01
DAV:   2    -0.191513480448E+03   -0.62462E-02   -0.29312E-02 13000   0.919E-01    0.757E-01
DAV:   3    -0.191507893520E+03    0.55869E-02   -0.12248E-02 11560   0.775E-01    0.173E-01
DAV:   4    -0.191508006643E+03   -0.11312E-03   -0.18197E-03 10120   0.288E-01    0.207E-01
DAV:   5    -0.191507582025E+03    0.42462E-03   -0.12110E-03 10480   0.259E-01    0.102E-01
DAV:   6    -0.191507488865E+03    0.93160E-04   -0.42774E-04  7720   0.116E-01
   8 F= -.19150749E+03 E0= -.19140382E+03  d E =-.170772E-01
       N       E                     dE             d eps       ncg     rms          rms(c)
DAV:   1    -0.191523638528E+03   -0.16057E-01   -0.60968E-01  8160   0.167E+00    0.259E-01
DAV:   2    -0.191533622635E+03   -0.99841E-02   -0.37243E-02 13160   0.108E+00    0.103E+00
DAV:   3    -0.191524147951E+03    0.94747E-02   -0.21836E-02 11040   0.923E-01    0.201E-01
DAV:   4    -0.191524472792E+03   -0.32484E-03   -0.28953E-03 10720   0.360E-01    0.262E-01
DAV:   5    -0.191523756938E+03    0.71585E-03   -0.16842E-03  9800   0.279E-01    0.106E-01
DAV:   6    -0.191523855875E+03   -0.98938E-04   -0.76221E-04  9120   0.186E-01
   9 F= -.19152386E+03 E0= -.19141949E+03  d E =-.163670E-01
       N       E                     dE             d eps       ncg     rms          rms(c)
DAV:   1    -0.191537477623E+03   -0.13721E-01   -0.40725E-01  8160   0.136E+00    0.159E-01
DAV:   2    -0.191539819186E+03   -0.23416E-02   -0.13890E-02 13560   0.561E-01    0.428E-01
DAV:   3    -0.191537987355E+03    0.18318E-02   -0.45299E-03 11360   0.467E-01    0.123E-01
DAV:   4    -0.191538167896E+03   -0.18054E-03   -0.96374E-04  9760   0.220E-01    0.178E-01
DAV:   5    -0.191537831999E+03    0.33590E-03   -0.63923E-04  8400   0.189E-01    0.497E-02
DAV:   6    -0.191537908296E+03   -0.76297E-04   -0.29089E-04  7040   0.978E-02
  10 F= -.19153791E+03 E0= -.19143375E+03  d E =-.140524E-01
       N       E                     dE             d eps       ncg     rms          rms(c)
DAV:   1    -0.191546490045E+03   -0.86580E-02   -0.18438E-01  8160   0.911E-01    0.946E-02
DAV:   2    -0.191546872217E+03   -0.38217E-03   -0.49619E-03 12240   0.194E-01    0.104E-01
DAV:   3    -0.191546863089E+03    0.91276E-05   -0.94420E-04 11520   0.196E-01
  11 F= -.19154686E+03 E0= -.19144282E+03  d E =-.895479E-02
       N       E                     dE             d eps       ncg     rms          rms(c)
DAV:   1    -0.191535587401E+03    0.11285E-01   -0.30047E-01  8160   0.117E+00    0.130E-01
DAV:   2    -0.191538917268E+03   -0.33299E-02   -0.13052E-02 13560   0.572E-01    0.575E-01
DAV:   3    -0.191535915755E+03    0.30015E-02   -0.62658E-03 11280   0.493E-01    0.732E-02
DAV:   4    -0.191535979864E+03   -0.64108E-04   -0.40478E-04  8400   0.112E-01
  12 F= -.19153598E+03 E0= -.19143114E+03  d E =0.108832E-01
       N       E                     dE             d eps       ncg     rms          rms(c)
DAV:   1    -0.191558314752E+03   -0.22399E-01   -0.10805E+00  8160   0.224E+00    0.402E-01
DAV:   2    -0.191579086795E+03   -0.20772E-01   -0.72003E-02 12680   0.164E+00    0.150E+00
DAV:   3    -0.191557546040E+03    0.21541E-01   -0.42937E-02 11760   0.144E+00    0.231E-01
DAV:   4    -0.191557294116E+03    0.25192E-03   -0.34755E-03 11280   0.353E-01    0.238E-01
DAV:   5    -0.191556980314E+03    0.31380E-03   -0.27210E-03 11440   0.383E-01    0.205E-01
DAV:   6    -0.191556518792E+03    0.46152E-03   -0.14795E-03  9680   0.237E-01    0.101E-01
DAV:   7    -0.191556586121E+03   -0.67329E-04   -0.81259E-04  8240   0.178E-01
  13 F= -.19155659E+03 E0= -.19145120E+03  d E =-.206063E-01
       N       E                     dE             d eps       ncg     rms          rms(c)
DAV:   1    -0.191580074071E+03   -0.23555E-01   -0.12297E+00  8160   0.234E+00    0.247E-01
DAV:   2    -0.191583393803E+03   -0.33197E-02   -0.31210E-02 13440   0.638E-01    0.492E-01
DAV:   3    -0.191581937698E+03    0.14561E-02   -0.10117E-02 12160   0.655E-01    0.335E-01
DAV:   4    -0.191581009486E+03    0.92821E-03   -0.29776E-03 10920   0.315E-01    0.157E-01
DAV:   5    -0.191581047398E+03   -0.37911E-04   -0.16474E-03  9640   0.258E-01    0.201E-01
DAV:   6    -0.191580753456E+03    0.29394E-03   -0.13351E-03  9320   0.234E-01    0.964E-02
DAV:   7    -0.191580736100E+03    0.17356E-04   -0.40615E-04  8360   0.130E-01
  14 F= -.19158074E+03 E0= -.19147662E+03  d E =-.241500E-01
       N       E                     dE             d eps       ncg     rms          rms(c)
DAV:   1    -0.191613887023E+03   -0.33134E-01   -0.20398E+00  8160   0.302E+00    0.347E-01
DAV:   2    -0.191628854409E+03   -0.14967E-01   -0.67715E-02 13600   0.129E+00    0.114E+00
DAV:   3    -0.191616237763E+03    0.12617E-01   -0.26928E-02 12360   0.116E+00    0.256E-01
DAV:   4    -0.191616321571E+03   -0.83807E-04   -0.34084E-03 11520   0.352E-01    0.294E-01
DAV:   5    -0.191615711690E+03    0.60988E-03   -0.31105E-03 10200   0.371E-01    0.193E-01
DAV:   6    -0.191615610757E+03    0.10093E-03   -0.15685E-03 10720   0.237E-01    0.149E-01
DAV:   7    -0.191615558017E+03    0.52740E-04   -0.10129E-03  9840   0.227E-01    0.116E-01
DAV:   8    -0.191615369528E+03    0.18849E-03   -0.28040E-04  7200   0.112E-01    0.156E-02
DAV:   9    -0.191615376493E+03   -0.69652E-05   -0.41341E-05  6480   0.228E-02
  15 F= -.19161538E+03 E0= -.19151222E+03  d E =-.346404E-01
       N       E                     dE             d eps       ncg     rms          rms(c)
DAV:   1    -0.191624390643E+03   -0.90211E-02   -0.21522E-01  8160   0.972E-01    0.913E-02
DAV:   2    -0.191624889027E+03   -0.49838E-03   -0.48857E-03 12960   0.248E-01    0.145E-01
DAV:   3    -0.191624697408E+03    0.19162E-03   -0.94091E-04 10440   0.221E-01    0.947E-02
DAV:   4    -0.191624630416E+03    0.66992E-04   -0.30739E-04  7880   0.117E-01
  16 F= -.19162463E+03 E0= -.19152235E+03  d E =-.925392E-02
       N       E                     dE             d eps       ncg     rms          rms(c)
DAV:   1    -0.191634032423E+03   -0.93350E-02   -0.29192E+00  8160   0.369E+00    0.544E-01
DAV:   2    -0.191648037938E+03   -0.14006E-01   -0.10192E-01 13600   0.148E+00    0.130E+00
DAV:   3    -0.191634718926E+03    0.13319E-01   -0.51961E-02 12000   0.154E+00    0.589E-01
DAV:   4    -0.191631788946E+03    0.29300E-02   -0.12348E-02 12280   0.633E-01    0.388E-01
DAV:   5    -0.191632148649E+03   -0.35970E-03   -0.10967E-02 11360   0.660E-01    0.521E-01
DAV:   6    -0.191629777013E+03    0.23716E-02   -0.71697E-03 11200   0.489E-01    0.136E-01
DAV:   7    -0.191629529680E+03    0.24733E-03   -0.10602E-03  9600   0.128E-01    0.414E-02
DAV:   8    -0.191629489397E+03    0.40284E-04   -0.11908E-04  7480   0.430E-02
  17 F= -.19162949E+03 E0= -.19152485E+03  d E =-.485898E-02
       N       E                     dE             d eps       ncg     rms          rms(c)
DAV:   1    -0.191617676948E+03    0.11853E-01   -0.47703E+00  8160   0.456E+00    0.452E-01
DAV:   2    -0.191634015542E+03   -0.16339E-01   -0.11177E-01 12320   0.148E+00    0.990E-01
DAV:   3    -0.191624463715E+03    0.95518E-02   -0.30686E-02 11840   0.126E+00    0.511E-01
DAV:   4    -0.191623023505E+03    0.14402E-02   -0.93504E-03 11840   0.598E-01    0.360E-01
DAV:   5    -0.191622339372E+03    0.68413E-03   -0.54712E-03 10600   0.500E-01    0.297E-01
DAV:   6    -0.191621670041E+03    0.66933E-03   -0.30177E-03 11720   0.335E-01    0.178E-01
DAV:   7    -0.191622013304E+03   -0.34326E-03   -0.26300E-03 10000   0.325E-01    0.243E-01
DAV:   8    -0.191621412566E+03    0.60074E-03   -0.11985E-03  9560   0.217E-01    0.346E-02
DAV:   9    -0.191621406182E+03    0.63844E-05   -0.74133E-05  5800   0.357E-02
  18 F= -.19162141E+03 E0= -.19151466E+03  d E =0.808321E-02
       N       E                     dE             d eps       ncg     rms          rms(c)
DAV:   1    -0.191679155808E+03   -0.57743E-01   -0.50346E+00  8160   0.475E+00    0.524E-01
DAV:   2    -0.191705168754E+03   -0.26013E-01   -0.14889E-01 13520   0.178E+00    0.148E+00
DAV:   3    -0.191685345749E+03    0.19823E-01   -0.56535E-02 12320   0.162E+00    0.470E-01
DAV:   4    -0.191684801239E+03    0.54451E-03   -0.95036E-03 11400   0.594E-01    0.469E-01
DAV:   5    -0.191683312294E+03    0.14889E-02   -0.81777E-03 12240   0.609E-01    0.322E-01
DAV:   6    -0.191682723136E+03    0.58916E-03   -0.38575E-03 10360   0.375E-01    0.206E-01
DAV:   7    -0.191682722211E+03    0.92451E-06   -0.23330E-03 11600   0.347E-01    0.188E-01
DAV:   8    -0.191682244284E+03    0.47793E-03   -0.73484E-04  8560   0.193E-01    0.320E-02
DAV:   9    -0.191682241966E+03    0.23177E-05   -0.93090E-05  6280   0.372E-02
  19 F= -.19168224E+03 E0= -.19157896E+03  d E =-.608358E-01
       N       E                     dE             d eps       ncg     rms          rms(c)
DAV:   1    -0.191671081014E+03    0.11163E-01   -0.20190E-01  8160   0.949E-01    0.950E-02
DAV:   2    -0.191671587303E+03   -0.50629E-03   -0.47632E-03 12920   0.263E-01    0.181E-01
DAV:   3    -0.191671362963E+03    0.22434E-03   -0.13058E-03 10320   0.248E-01    0.119E-01
DAV:   4    -0.191671258191E+03    0.10477E-03   -0.38912E-04  7480   0.120E-01    0.630E-02
DAV:   5    -0.191671257377E+03    0.81432E-06   -0.22830E-04  6360   0.100E-01
  20 F= -.19167126E+03 E0= -.19156753E+03  d E =0.109846E-01
       N       E                     dE             d eps       ncg     rms          rms(c)
DAV:   1    -0.191645189800E+03    0.26068E-01   -0.23081E+00  8160   0.321E+00    0.345E-01
DAV:   2    -0.191649506703E+03   -0.43169E-02   -0.54200E-02 12760   0.843E-01    0.536E-01
DAV:   3    -0.191648867775E+03    0.63893E-03   -0.16954E-02 12360   0.836E-01    0.526E-01
DAV:   4    -0.191646820671E+03    0.20471E-02   -0.80948E-03 11640   0.535E-01    0.260E-01
DAV:   5    -0.191646481940E+03    0.33873E-03   -0.30224E-03 11240   0.376E-01    0.221E-01
DAV:   6    -0.191646001062E+03    0.48088E-03   -0.16870E-03 10480   0.277E-01    0.872E-02
DAV:   7    -0.191646008116E+03   -0.70543E-05   -0.49794E-04  8800   0.133E-01
  21 F= -.19164601E+03 E0= -.19154058E+03  d E =0.252493E-01
       N       E                     dE             d eps       ncg     rms          rms(c)
DAV:   1    -0.191735277881E+03   -0.89277E-01   -0.13450E+01  8160   0.781E+00    0.832E-01
DAV:   2    -0.191775472796E+03   -0.40195E-01   -0.36178E-01 13040   0.231E+00    0.178E+00
DAV:   3    -0.191756353788E+03    0.19119E-01   -0.12602E-01 12040   0.225E+00    0.974E-01
DAV:   4    -0.191748039357E+03    0.83144E-02   -0.26662E-02 12240   0.100E+00    0.566E-01
DAV:   5    -0.191747201658E+03    0.83770E-03   -0.17304E-02 11120   0.904E-01    0.623E-01
DAV:   6    -0.191744242639E+03    0.29590E-02   -0.12775E-02 11640   0.709E-01    0.295E-01
DAV:   7    -0.191744477040E+03   -0.23440E-03   -0.51890E-03 10960   0.518E-01    0.317E-01
DAV:   8    -0.191743207028E+03    0.12700E-02   -0.21351E-03 10880   0.350E-01    0.637E-02
DAV:   9    -0.191743153161E+03    0.53867E-04   -0.26762E-04  7560   0.715E-02
  22 F= -.19174315E+03 E0= -.19164334E+03  d E =-.971450E-01
       N       E                     dE             d eps       ncg     rms          rms(c)
DAV:   1    -0.191712202170E+03    0.31005E-01   -0.10435E+00  8160   0.217E+00    0.229E-01
DAV:   2    -0.191716173194E+03   -0.39710E-02   -0.28646E-02 13280   0.712E-01    0.552E-01
DAV:   3    -0.191713498182E+03    0.26750E-02   -0.88450E-03 12440   0.654E-01    0.232E-01
DAV:   4    -0.191713173876E+03    0.32431E-03   -0.18592E-03  9840   0.245E-01    0.166E-01
DAV:   5    -0.191713055020E+03    0.11886E-03   -0.12728E-03 10200   0.245E-01    0.146E-01
DAV:   6    -0.191712898834E+03    0.15619E-03   -0.70880E-04  8280   0.168E-01    0.715E-02
DAV:   7    -0.191712925734E+03   -0.26900E-04   -0.35101E-04  8560   0.131E-01
  23 F= -.19171293E+03 E0= -.19161160E+03  d E =0.302274E-01
       N       E                     dE             d eps       ncg     rms          rms(c)
DAV:   1    -0.191759795321E+03   -0.46896E-01   -0.30780E+00  8160   0.372E+00    0.391E-01
DAV:   2    -0.191773668207E+03   -0.13873E-01   -0.86678E-02 13600   0.130E+00    0.106E+00
DAV:   3    -0.191763624075E+03    0.10044E-01   -0.30197E-02 12360   0.118E+00    0.359E-01
DAV:   4    -0.191763358050E+03    0.26603E-03   -0.53590E-03 11120   0.475E-01    0.359E-01
DAV:   5    -0.191762299604E+03    0.10584E-02   -0.40367E-03 11600   0.458E-01    0.202E-01
DAV:   6    -0.191762288179E+03    0.11425E-04   -0.20849E-03 10760   0.295E-01    0.190E-01
DAV:   7    -0.191762070603E+03    0.21758E-03   -0.13563E-03 10240   0.273E-01    0.114E-01
DAV:   8    -0.191761875888E+03    0.19472E-03   -0.29389E-04  7920   0.116E-01    0.177E-02
DAV:   9    -0.191761882225E+03   -0.63369E-05   -0.52664E-05  6640   0.257E-02
  24 F= -.19176188E+03 E0= -.19166331E+03  d E =-.489565E-01
       N       E                     dE             d eps       ncg     rms          rms(c)
DAV:   1    -0.191791368432E+03   -0.29493E-01   -0.96005E-01  8160   0.210E+00    0.239E-01
DAV:   2    -0.191795100013E+03   -0.37316E-02   -0.30081E-02 12440   0.703E-01    0.549E-01
DAV:   3    -0.191792758835E+03    0.23412E-02   -0.94919E-03 12200   0.661E-01    0.246E-01
DAV:   4    -0.191792267964E+03    0.49087E-03   -0.17916E-03 10200   0.249E-01    0.152E-01
DAV:   5    -0.191792255608E+03    0.12356E-04   -0.13132E-03 10520   0.256E-01    0.167E-01
DAV:   6    -0.191792026042E+03    0.22957E-03   -0.80282E-04  8960   0.186E-01    0.602E-02
DAV:   7    -0.191791978483E+03    0.47559E-04   -0.15821E-04  5640   0.626E-02
  25 F= -.19179198E+03 E0= -.19169488E+03  d E =-.300963E-01
       N       E                     dE             d eps       ncg     rms          rms(c)
DAV:   1    -0.191888441033E+03   -0.96415E-01   -0.13229E+01  8160   0.777E+00    0.826E-01
DAV:   2    -0.191933266559E+03   -0.44826E-01   -0.38249E-01 12080   0.237E+00    0.181E+00
DAV:   3    -0.191910362748E+03    0.22904E-01   -0.11526E-01 12280   0.229E+00    0.859E-01
DAV:   4    -0.191903701458E+03    0.66613E-02   -0.19368E-02 12320   0.876E-01    0.536E-01
DAV:   5    -0.191902467106E+03    0.12344E-02   -0.13747E-02 12520   0.876E-01    0.499E-01
DAV:   6    -0.191900995899E+03    0.14712E-02   -0.86993E-03 11640   0.642E-01    0.292E-01
DAV:   7    -0.191900454723E+03    0.54118E-03   -0.41586E-03 11560   0.462E-01    0.236E-01
DAV:   8    -0.191899735031E+03    0.71969E-03   -0.14000E-03 11360   0.291E-01    0.560E-02
DAV:   9    -0.191899702397E+03    0.32634E-04   -0.14778E-04  6080   0.587E-02
  26 F= -.19189970E+03 E0= -.19180734E+03  d E =-.107724E+00
       N       E                     dE             d eps       ncg     rms          rms(c)
DAV:   1    -0.191994040254E+03   -0.94305E-01   -0.86967E+01  8160   0.201E+01    0.203E+00
DAV:   2    -0.192224538706E+03   -0.23050E+00   -0.25428E+00 11480   0.526E+00    0.335E+00
DAV:   3    -0.192177642327E+03    0.46896E-01   -0.56896E-01 12280   0.537E+00    0.235E+00
DAV:   4    -0.192109728138E+03    0.67914E-01   -0.10243E-01 12160   0.230E+00    0.102E+00
DAV:   5    -0.192109966832E+03   -0.23869E-03   -0.70641E-02 12720   0.205E+00    0.124E+00
DAV:   6    -0.192101575453E+03    0.83914E-02   -0.54028E-02 12720   0.183E+00    0.815E-01
DAV:   7    -0.192094266079E+03    0.73094E-02   -0.21586E-02 11680   0.113E+00    0.471E-01
DAV:   8    -0.192091415445E+03    0.28506E-02   -0.64206E-03 12600   0.624E-01    0.142E-01
DAV:   9    -0.192091201702E+03    0.21374E-03   -0.11956E-03 11320   0.158E-01    0.713E-02
DAV:  10    -0.192091083763E+03    0.11794E-03   -0.55203E-04 10120   0.778E-02    0.432E-02
DAV:  11    -0.192091098793E+03   -0.15030E-04   -0.12320E-04  6520   0.496E-02
  27 F= -.19209110E+03 E0= -.19200283E+03  d E =-.191396E+00
       N       E                     dE             d eps       ncg     rms          rms(c)
DAV:   1    -0.192059322558E+03    0.31761E-01   -0.10728E+01  8160   0.695E+00    0.686E-01
DAV:   2    -0.192084874841E+03   -0.25552E-01   -0.23136E-01 11240   0.207E+00    0.133E+00
DAV:   3    -0.192069328734E+03    0.15546E-01   -0.63221E-02 12760   0.187E+00    0.693E-01
DAV:   4    -0.192067218818E+03    0.21099E-02   -0.17055E-02 12600   0.940E-01    0.573E-01
DAV:   5    -0.192064022146E+03    0.31967E-02   -0.10735E-02 11560   0.836E-01    0.323E-01
DAV:   6    -0.192063033237E+03    0.98891E-03   -0.41975E-03 11960   0.421E-01    0.162E-01
DAV:   7    -0.192062897512E+03    0.13573E-03   -0.15952E-03 13080   0.278E-01    0.174E-01
DAV:   8    -0.192062571837E+03    0.32568E-03   -0.67341E-04  9320   0.217E-01    0.592E-02
DAV:   9    -0.192062532830E+03    0.39006E-04   -0.13175E-04  6280   0.686E-02
  28 F= -.19206253E+03 E0= -.19197282E+03  d E =0.285660E-01
       N       E                     dE             d eps       ncg     rms          rms(c)
DAV:   1    -0.192111160426E+03   -0.48589E-01   -0.16503E+01  8160   0.869E+00    0.857E-01
DAV:   2    -0.192145687309E+03   -0.34527E-01   -0.46463E-01 11840   0.199E+00    0.950E-01
DAV:   3    -0.192149317071E+03   -0.36298E-02   -0.78317E-02 12280   0.205E+00    0.118E+00
DAV:   4    -0.192134802312E+03    0.14515E-01   -0.26793E-02 12280   0.131E+00    0.498E-01
DAV:   5    -0.192133677241E+03    0.11251E-02   -0.12439E-02 11360   0.882E-01    0.444E-01
DAV:   6    -0.192132493024E+03    0.11842E-02   -0.73704E-03 12800   0.633E-01    0.273E-01
DAV:   7    -0.192131691004E+03    0.80202E-03   -0.29167E-03 11480   0.399E-01    0.207E-01
DAV:   8    -0.192131239408E+03    0.45160E-03   -0.10033E-03 10240   0.252E-01    0.615E-02
DAV:   9    -0.192131196927E+03    0.42481E-04   -0.16679E-04  6120   0.679E-02
  29 F= -.19213120E+03 E0= -.19204225E+03  d E =-.686641E-01
       N       E                     dE             d eps       ncg     rms          rms(c)
DAV:   1    -0.192144027474E+03   -0.12788E-01   -0.60726E-01  8160   0.168E+00    0.201E-01
DAV:   2    -0.192145693791E+03   -0.16663E-02   -0.21386E-02 11160   0.485E-01    0.268E-01
DAV:   3    -0.192145618759E+03    0.75032E-04   -0.39010E-03 12360   0.485E-01    0.271E-01
DAV:   4    -0.192144797744E+03    0.82102E-03   -0.12977E-03 10160   0.271E-01    0.751E-02
DAV:   5    -0.192144985940E+03   -0.18820E-03   -0.66271E-04  9920   0.196E-01    0.152E-01
DAV:   6    -0.192144748394E+03    0.23755E-03   -0.48831E-04  8840   0.188E-01    0.485E-02
DAV:   7    -0.192144727683E+03    0.20711E-04   -0.87242E-05  6320   0.620E-02
  30 F= -.19214473E+03 E0= -.19205573E+03  d E =-.135308E-01
       N       E                     dE             d eps       ncg     rms          rms(c)
DAV:   1    -0.192161551520E+03   -0.16803E-01   -0.10161E+00  8160   0.216E+00    0.236E-01
DAV:   2    -0.192164441537E+03   -0.28900E-02   -0.32191E-02 11040   0.608E-01    0.327E-01
DAV:   3    -0.192163913829E+03    0.52771E-03   -0.50057E-03 11840   0.572E-01    0.273E-01
DAV:   4    -0.192163383878E+03    0.52995E-03   -0.19305E-03 10840   0.340E-01    0.180E-01
DAV:   5    -0.192163059744E+03    0.32413E-03   -0.10077E-03  9760   0.256E-01    0.841E-02
DAV:   6    -0.192163093462E+03   -0.33718E-04   -0.43485E-04  8800   0.122E-01
  31 F= -.19216309E+03 E0= -.19207420E+03  d E =-.183658E-01
       N       E                     dE             d eps       ncg     rms          rms(c)
DAV:   1    -0.192171553342E+03   -0.84936E-02   -0.24542E-01  8160   0.107E+00    0.129E-01
DAV:   2    -0.192172340400E+03   -0.78706E-03   -0.84171E-03 11360   0.305E-01    0.197E-01
DAV:   3    -0.192172113185E+03    0.22721E-03   -0.16483E-03 11840   0.328E-01    0.151E-01
DAV:   4    -0.192171947450E+03    0.16574E-03   -0.54750E-04  8800   0.176E-01    0.878E-02
DAV:   5    -0.192171870221E+03    0.77229E-04   -0.27817E-04  8680   0.135E-01
  32 F= -.19217187E+03 E0= -.19208318E+03  d E =-.877676E-02
       N       E                     dE             d eps       ncg     rms          rms(c)
DAV:   1    -0.192195175482E+03   -0.23228E-01   -0.23788E+00  8160   0.331E+00    0.357E-01
DAV:   2    -0.192200716951E+03   -0.55415E-02   -0.71190E-02 10960   0.849E-01    0.430E-01
DAV:   3    -0.192200889396E+03   -0.17245E-03   -0.11446E-02 12480   0.853E-01    0.478E-01
DAV:   4    -0.192198713243E+03    0.21762E-02   -0.46388E-03 11960   0.539E-01    0.213E-01
DAV:   5    -0.192198427842E+03    0.28540E-03   -0.21816E-03 10360   0.370E-01    0.158E-01
DAV:   6    -0.192198305311E+03    0.12253E-03   -0.11882E-03 10600   0.220E-01    0.934E-02
DAV:   7    -0.192198140424E+03    0.16489E-03   -0.29513E-04  8160   0.104E-01    0.431E-02
DAV:   8    -0.192198131821E+03    0.86032E-05   -0.74636E-05  6560   0.738E-02
  33 F= -.19219813E+03 E0= -.19211024E+03  d E =-.262616E-01
       N       E                     dE             d eps       ncg     rms          rms(c)
DAV:   1    -0.192231878423E+03   -0.33738E-01   -0.10659E+01  8160   0.700E+00    0.726E-01
DAV:   2    -0.192256254147E+03   -0.24376E-01   -0.32323E-01 11440   0.165E+00    0.735E-01
DAV:   3    -0.192259362269E+03   -0.31081E-02   -0.38595E-02 12040   0.164E+00    0.964E-01
DAV:   4    -0.192249698755E+03    0.96635E-02   -0.18584E-02 11240   0.112E+00    0.419E-01
DAV:   5    -0.192248979279E+03    0.71948E-03   -0.87734E-03 12160   0.747E-01    0.347E-01
DAV:   6    -0.192248001934E+03    0.97734E-03   -0.46738E-03 12000   0.430E-01    0.172E-01
DAV:   7    -0.192247718838E+03    0.28310E-03   -0.13394E-03 10480   0.281E-01    0.137E-01
DAV:   8    -0.192247518903E+03    0.19993E-03   -0.38145E-04  9000   0.158E-01    0.387E-02
DAV:   9    -0.192247501423E+03    0.17480E-04   -0.10679E-04  6560   0.438E-02
  34 F= -.19224750E+03 E0= -.19216128E+03  d E =-.493696E-01
       N       E                     dE             d eps       ncg     rms          rms(c)
DAV:   1    -0.192261899642E+03   -0.14381E-01   -0.17531E+00  8160   0.280E+00    0.301E-01
DAV:   2    -0.192267694486E+03   -0.57948E-02   -0.57518E-02 11880   0.923E-01    0.477E-01
DAV:   3    -0.192265760752E+03    0.19337E-02   -0.79201E-03 12320   0.756E-01    0.285E-01
DAV:   4    -0.192265117528E+03    0.64322E-03   -0.22650E-03 11520   0.386E-01    0.191E-01
DAV:   5    -0.192264836642E+03    0.28089E-03   -0.14247E-03 11320   0.301E-01    0.126E-01
DAV:   6    -0.192264792647E+03    0.43995E-04   -0.92508E-04 10720   0.188E-01
  35 F= -.19226479E+03 E0= -.19217992E+03  d E =-.172912E-01
       N       E                     dE             d eps       ncg     rms          rms(c)
DAV:   1    -0.192285528931E+03   -0.20692E-01   -0.82379E+00  8160   0.608E+00    0.622E-01
DAV:   2    -0.192305196575E+03   -0.19668E-01   -0.24262E-01 11840   0.153E+00    0.699E-01
DAV:   3    -0.192305184467E+03    0.12108E-04   -0.28969E-02 12120   0.144E+00    0.746E-01
DAV:   4    -0.192299440915E+03    0.57436E-02   -0.11079E-02 11880   0.909E-01    0.353E-01
DAV:   5    -0.192298872657E+03    0.56826E-03   -0.58775E-03 12200   0.613E-01    0.290E-01
DAV:   6    -0.192298399664E+03    0.47299E-03   -0.39612E-03 11960   0.407E-01    0.154E-01
DAV:   7    -0.192298031285E+03    0.36838E-03   -0.11185E-03 10880   0.217E-01    0.100E-01
DAV:   8    -0.192297940071E+03    0.91215E-04   -0.26554E-04  8440   0.132E-01
  36 F= -.19229794E+03 E0= -.19221521E+03  d E =-.331474E-01
       N       E                     dE             d eps       ncg     rms          rms(c)
DAV:   1    -0.192310962888E+03   -0.12932E-01   -0.35043E+00  8160   0.398E+00    0.433E-01
DAV:   2    -0.192320143107E+03   -0.91802E-02   -0.10788E-01 11600   0.124E+00    0.578E-01
DAV:   3    -0.192317732304E+03    0.24108E-02   -0.15253E-02 12240   0.104E+00    0.410E-01
DAV:   4    -0.192316147767E+03    0.15845E-02   -0.46045E-03 11200   0.562E-01    0.268E-01
DAV:   5    -0.192315744535E+03    0.40323E-03   -0.31153E-03 12160   0.456E-01    0.207E-01
DAV:   6    -0.192315414801E+03    0.32973E-03   -0.18090E-03 12560   0.270E-01    0.861E-02
DAV:   7    -0.192315319629E+03    0.95172E-04   -0.48029E-04 10240   0.126E-01
  37 F= -.19231532E+03 E0= -.19223459E+03  d E =-.173796E-01
       N       E                     dE             d eps       ncg     rms          rms(c)
DAV:   1    -0.192319734746E+03   -0.43199E-02   -0.38801E-01  8160   0.132E+00    0.146E-01
DAV:   2    -0.192320857695E+03   -0.11229E-02   -0.13629E-02 11760   0.405E-01    0.194E-01
DAV:   3    -0.192320742544E+03    0.11515E-03   -0.23214E-03 12400   0.370E-01    0.178E-01
DAV:   4    -0.192320415251E+03    0.32729E-03   -0.62657E-04  9080   0.209E-01    0.679E-02
DAV:   5    -0.192320410153E+03    0.50972E-05   -0.24544E-04  7800   0.116E-01
  38 F= -.19232041E+03 E0= -.19224027E+03  d E =-.509052E-02
       N       E                     dE             d eps       ncg     rms          rms(c)
DAV:   1    -0.192323397484E+03   -0.29822E-02   -0.14932E-01  8160   0.833E-01    0.105E-01
DAV:   2    -0.192324000676E+03   -0.60319E-03   -0.50849E-03 11720   0.309E-01    0.197E-01
DAV:   3    -0.192323628308E+03    0.37237E-03   -0.10317E-03 10200   0.283E-01    0.939E-02
DAV:   4    -0.192323553239E+03    0.75069E-04   -0.18170E-04  6440   0.104E-01
  39 F= -.19232355E+03 E0= -.19224388E+03  d E =-.314309E-02
       N       E                     dE             d eps       ncg     rms          rms(c)
DAV:   1    -0.192324939298E+03   -0.13110E-02   -0.32683E-02  8160   0.390E-01    0.705E-02
DAV:   2    -0.192325375692E+03   -0.43639E-03   -0.19151E-03 12440   0.265E-01    0.180E-01
DAV:   3    -0.192324937968E+03    0.43772E-03   -0.79499E-04  9280   0.227E-01    0.431E-02
DAV:   4    -0.192324967554E+03   -0.29585E-04   -0.10540E-04  5800   0.920E-02
  40 F= -.19232497E+03 E0= -.19224545E+03  d E =-.141431E-02
       N       E                     dE             d eps       ncg     rms          rms(c)
DAV:   1    -0.192329504170E+03   -0.45662E-02   -0.48738E-01  8160   0.148E+00    0.159E-01
DAV:   2    -0.192330570072E+03   -0.10659E-02   -0.13793E-02 12080   0.390E-01    0.194E-01
DAV:   3    -0.192330494512E+03    0.75560E-04   -0.20094E-03 11920   0.378E-01    0.192E-01
DAV:   4    -0.192330123072E+03    0.37144E-03   -0.74658E-04 10360   0.228E-01    0.749E-02
DAV:   5    -0.192330087085E+03    0.35987E-04   -0.27953E-04  7800   0.107E-01
  41 F= -.19233009E+03 E0= -.19225148E+03  d E =-.511953E-02
       N       E                     dE             d eps       ncg     rms          rms(c)
DAV:   1    -0.192329288631E+03    0.83444E-03   -0.21142E-02  8160   0.322E-01    0.895E-02
DAV:   2    -0.192330516312E+03   -0.12277E-02   -0.33807E-03 10920   0.434E-01    0.318E-01
DAV:   3    -0.192329211088E+03    0.13052E-02   -0.17244E-03 10080   0.351E-01    0.495E-02
DAV:   4    -0.192329207089E+03    0.39995E-05   -0.10200E-04  5600   0.850E-02
  42 F= -.19232921E+03 E0= -.19225057E+03  d E =0.879996E-03
       N       E                     dE             d eps       ncg     rms          rms(c)
DAV:   1    -0.192331970935E+03   -0.27598E-02   -0.18990E-01  8160   0.923E-01    0.957E-02
DAV:   2    -0.192332343712E+03   -0.37278E-03   -0.59137E-03 11640   0.223E-01    0.796E-02
DAV:   3    -0.192332470549E+03   -0.12684E-03   -0.55370E-04 10720   0.209E-01    0.131E-01
DAV:   4    -0.192332259852E+03    0.21070E-03   -0.25796E-04  7560   0.157E-01    0.378E-02
DAV:   5    -0.192332290617E+03   -0.30765E-04   -0.13698E-04  6640   0.913E-02
  43 F= -.19233229E+03 E0= -.19225420E+03  d E =-.308353E-02
       N       E                     dE             d eps       ncg     rms          rms(c)
DAV:   1    -0.192333126042E+03   -0.86619E-03   -0.17168E-02  8160   0.286E-01    0.456E-02
DAV:   2    -0.192333209115E+03   -0.83074E-04   -0.77513E-04 10480   0.132E-01
  44 F= -.19233321E+03 E0= -.19225536E+03  d E =-.918498E-03
       N       E                     dE             d eps       ncg     rms          rms(c)
DAV:   1    -0.192337042253E+03   -0.39162E-02   -0.43204E-01  8160   0.139E+00    0.171E-01
DAV:   2    -0.192337734106E+03   -0.69185E-03   -0.12674E-02 11520   0.398E-01    0.187E-01
DAV:   3    -0.192337602708E+03    0.13140E-03   -0.21141E-03 12440   0.379E-01    0.165E-01
DAV:   4    -0.192337247727E+03    0.35498E-03   -0.68285E-04 10120   0.209E-01    0.769E-02
DAV:   5    -0.192337334085E+03   -0.86358E-04   -0.48899E-04  9520   0.187E-01
  45 F= -.19233733E+03 E0= -.19226057E+03  d E =-.412497E-02
       N       E                     dE             d eps       ncg     rms          rms(c)
DAV:   1    -0.192338922502E+03   -0.16748E-02   -0.87147E-02  8160   0.637E-01    0.802E-02
DAV:   2    -0.192339420290E+03   -0.49779E-03   -0.38388E-03 13120   0.279E-01    0.166E-01
DAV:   3    -0.192339123991E+03    0.29630E-03   -0.76313E-04 10920   0.235E-01    0.688E-02
DAV:   4    -0.192339080537E+03    0.43454E-04   -0.11360E-04  5760   0.862E-02
  46 F= -.19233908E+03 E0= -.19226265E+03  d E =-.174645E-02
       N       E                     dE             d eps       ncg     rms          rms(c)
DAV:   1    -0.192341411445E+03   -0.22875E-02   -0.17400E-01  8160   0.883E-01    0.106E-01
DAV:   2    -0.192341805616E+03   -0.39417E-03   -0.53662E-03 11920   0.289E-01    0.139E-01
DAV:   3    -0.192341680709E+03    0.12491E-03   -0.94241E-04 10240   0.246E-01    0.104E-01
DAV:   4    -0.192341589775E+03    0.90934E-04   -0.30900E-04  8040   0.143E-01
  47 F= -.19234159E+03 E0= -.19226547E+03  d E =-.250924E-02
       N       E                     dE             d eps       ncg     rms          rms(c)
DAV:   1    -0.192343449583E+03   -0.17689E-02   -0.11679E-01  8160   0.731E-01    0.104E-01
DAV:   2    -0.192344261320E+03   -0.81174E-03   -0.47291E-03 12400   0.361E-01    0.230E-01
DAV:   3    -0.192343561080E+03    0.70024E-03   -0.12563E-03 10360   0.311E-01    0.645E-02
DAV:   4    -0.192343624110E+03   -0.63030E-04   -0.25308E-04  7800   0.129E-01
  48 F= -.19234362E+03 E0= -.19226800E+03  d E =-.203434E-02
       N       E                     dE             d eps       ncg     rms          rms(c)
DAV:   1    -0.192347176758E+03   -0.36157E-02   -0.77865E-01  8160   0.187E+00    0.209E-01
DAV:   2    -0.192349090471E+03   -0.19137E-02   -0.24395E-02 12360   0.571E-01    0.260E-01
DAV:   3    -0.192348678071E+03    0.41240E-03   -0.34177E-03 12440   0.477E-01    0.196E-01
DAV:   4    -0.192348274445E+03    0.40363E-03   -0.10207E-03 10160   0.267E-01    0.122E-01
DAV:   5    -0.192348248699E+03    0.25745E-04   -0.63656E-04 10840   0.219E-01
  49 F= -.19234825E+03 E0= -.19227377E+03  d E =-.462459E-02
       N       E                     dE             d eps       ncg     rms          rms(c)
DAV:   1    -0.192347731530E+03    0.54291E-03   -0.18460E-02  8160   0.317E-01    0.573E-02
DAV:   2    -0.192348182821E+03   -0.45129E-03   -0.13474E-03 11720   0.238E-01    0.188E-01
DAV:   3    -0.192347745108E+03    0.43771E-03   -0.62360E-04  9040   0.221E-01    0.444E-02
DAV:   4    -0.192347723690E+03    0.21419E-04   -0.59878E-05  5680   0.511E-02
  50 F= -.19234772E+03 E0= -.19227331E+03  d E =0.525010E-03
       N       E                     dE             d eps       ncg     rms          rms(c)
DAV:   1    -0.192349324502E+03   -0.15794E-02   -0.13704E-01  8160   0.779E-01    0.777E-02
DAV:   2    -0.192349680370E+03   -0.35587E-03   -0.43126E-03 11600   0.208E-01    0.964E-02
DAV:   3    -0.192349674807E+03    0.55634E-05   -0.49834E-04 10120   0.195E-01
  51 F= -.19234967E+03 E0= -.19227576E+03  d E =-.195112E-02
       N       E                     dE             d eps       ncg     rms          rms(c)
DAV:   1    -0.192350296656E+03   -0.61629E-03   -0.23668E-02  8160   0.343E-01    0.533E-02
DAV:   2    -0.192350389392E+03   -0.92736E-04   -0.81161E-04 12280   0.139E-01
  52 F= -.19235039E+03 E0= -.19227663E+03  d E =-.714585E-03
       N       E                     dE             d eps       ncg     rms          rms(c)
DAV:   1    -0.192351301758E+03   -0.10051E-02   -0.50011E-02  8160   0.485E-01    0.749E-02
DAV:   2    -0.192351604787E+03   -0.30303E-03   -0.18219E-03 12720   0.225E-01    0.152E-01
DAV:   3    -0.192351314904E+03    0.28988E-03   -0.46525E-04  9920   0.202E-01    0.476E-02
DAV:   4    -0.192351354617E+03   -0.39712E-04   -0.13571E-04  5720   0.101E-01
  53 F= -.19235135E+03 E0= -.19227791E+03  d E =-.965224E-03
       N       E                     dE             d eps       ncg     rms          rms(c)
DAV:   1    -0.192352627846E+03   -0.13129E-02   -0.11916E-01  8160   0.734E-01    0.812E-02
DAV:   2    -0.192352922309E+03   -0.29446E-03   -0.40134E-03 12320   0.203E-01    0.868E-02
DAV:   3    -0.192352965326E+03   -0.43017E-04   -0.50331E-04 10240   0.185E-01
  54 F= -.19235297E+03 E0= -.19227980E+03  d E =-.161071E-02
       N       E                     dE             d eps       ncg     rms          rms(c)
DAV:   1    -0.192354284526E+03   -0.13622E-02   -0.15375E-01  8160   0.835E-01    0.105E-01
DAV:   2    -0.192354807708E+03   -0.52318E-03   -0.46737E-03 12720   0.291E-01    0.174E-01
DAV:   3    -0.192354461320E+03    0.34639E-03   -0.95447E-04 11040   0.261E-01    0.832E-02
DAV:   4    -0.192354449288E+03    0.12032E-04   -0.23088E-04  7640   0.127E-01
  55 F= -.19235445E+03 E0= -.19228196E+03  d E =-.148396E-02
       N       E                     dE             d eps       ncg     rms          rms(c)
DAV:   1    -0.192355243827E+03   -0.78251E-03   -0.44150E-02  8160   0.467E-01    0.741E-02
DAV:   2    -0.192355608788E+03   -0.36496E-03   -0.19968E-03 13280   0.248E-01    0.169E-01
DAV:   3    -0.192355263149E+03    0.34564E-03   -0.60154E-04  9720   0.220E-01    0.517E-02
DAV:   4    -0.192355272842E+03   -0.96923E-05   -0.91752E-05  5600   0.775E-02
  56 F= -.19235527E+03 E0= -.19228302E+03  d E =-.823554E-03
       N       E                     dE             d eps       ncg     rms          rms(c)
DAV:   1    -0.192356172518E+03   -0.90937E-03   -0.58265E-02  8160   0.513E-01    0.828E-02
DAV:   2    -0.192356401749E+03   -0.22923E-03   -0.26311E-03 10880   0.252E-01    0.132E-01
DAV:   3    -0.192356197582E+03    0.20417E-03   -0.59074E-04  9400   0.208E-01    0.585E-02
DAV:   4    -0.192356172737E+03    0.24845E-04   -0.12042E-04  6000   0.922E-02
  57 F= -.19235617E+03 E0= -.19228428E+03  d E =-.899895E-03
       N       E                     dE             d eps       ncg     rms          rms(c)
DAV:   1    -0.192357641592E+03   -0.14440E-02   -0.24597E-01  8160   0.105E+00    0.125E-01
DAV:   2    -0.192358383051E+03   -0.74146E-03   -0.79055E-03 12080   0.327E-01    0.198E-01
DAV:   3    -0.192358072723E+03    0.31033E-03   -0.14014E-03 11520   0.324E-01    0.126E-01
DAV:   4    -0.192357899455E+03    0.17327E-03   -0.30815E-04  7840   0.136E-01    0.425E-02
DAV:   5    -0.192357928333E+03   -0.28879E-04   -0.14905E-04  6800   0.931E-02
  58 F= -.19235793E+03 E0= -.19228690E+03  d E =-.175560E-02
       N       E                     dE             d eps       ncg     rms          rms(c)
DAV:   1    -0.192359227096E+03   -0.13276E-02   -0.14723E+00  8160   0.257E+00    0.281E-01
DAV:   2    -0.192362921788E+03   -0.36947E-02   -0.47810E-02 12200   0.735E-01    0.341E-01
DAV:   3    -0.192362701971E+03    0.21982E-03   -0.52603E-03 12120   0.666E-01    0.322E-01
DAV:   4    -0.192361434262E+03    0.12677E-02   -0.18391E-03 10960   0.385E-01    0.118E-01
DAV:   5    -0.192361602263E+03   -0.16800E-03   -0.12484E-03 11200   0.273E-01    0.156E-01
DAV:   6    -0.192361319027E+03    0.28324E-03   -0.81260E-04 10280   0.208E-01    0.414E-02
DAV:   7    -0.192361302546E+03    0.16480E-04   -0.93919E-05  6640   0.632E-02
  59 F= -.19236130E+03 E0= -.19229193E+03  d E =-.337421E-02
       N       E                     dE             d eps       ncg     rms          rms(c)
DAV:   1    -0.192361650177E+03   -0.33115E-03   -0.75593E-02  8160   0.632E-01    0.142E-01
DAV:   2    -0.192361670246E+03   -0.20070E-04   -0.48731E-03 11080   0.322E-01    0.186E-01
DAV:   3    -0.192361377501E+03    0.29275E-03   -0.16081E-03 10600   0.336E-01    0.128E-01
DAV:   4    -0.192361223621E+03    0.15388E-03   -0.58440E-04  8920   0.206E-01    0.104E-01
DAV:   5    -0.192361157525E+03    0.66096E-04   -0.47482E-04  9320   0.179E-01
  60 F= -.19236116E+03 E0= -.19229107E+03  d E =0.145021E-03
