<?xml version="1.0" encoding="ISO-8859-1"?>
<modeling>
 <generator>
  <i name="program" type="string">vasp </i>
  <i name="version" type="string">5.4.1  </i>
  <i name="subversion" type="string">05Feb16 (build Jul 05 2020 17:13:04) complex                          parallel </i>
  <i name="platform" type="string">IFC91_ompi </i>
  <i name="date" type="string">2024 05 06 </i>
  <i name="time" type="string">14:19:37 </i>
 </generator>
 <incar>
  <i type="int" name="ISTART">     0</i>
  <i type="string" name="PREC">normal</i>
  <i type="string" name="ALGO"> Normal</i>
  <i type="int" name="ISPIN">     1</i>
  <i type="int" name="ICHARG">     2</i>
  <i type="int" name="IBRION">     1</i>
  <i type="int" name="NSW">   100</i>
  <i type="int" name="ISIF">     3</i>
  <i type="int" name="ISYM">     0</i>
  <i name="SYMPREC">      0.00000001</i>
  <i name="POTIM">      0.50000000</i>
  <i type="logical" name="LREAL"> F  </i>
  <i type="logical" name="LPLANE"> F  </i>
  <i type="int" name="ISMEAR">     0</i>
  <i type="logical" name="LWAVE"> F  </i>
  <i type="logical" name="LCHARG"> F  </i>
  <v type="int" name="KPOINT_BSE">    -1     0     0     0</v>
 </incar>
 <kpoints>
  <generation param="Gamma">
   <v type="int" name="divisions">       8        8        1 </v>
   <v name="usershift">      0.00000000       0.00000000       0.00000000 </v>
   <v name="genvec1">      0.12500000       0.00000000       0.00000000 </v>
   <v name="genvec2">     -0.00000000       0.12500000       0.00000000 </v>
   <v name="genvec3">      0.00000000       0.00000000       1.00000000 </v>
   <v name="shift">      0.00000000       0.00000000       0.00000000 </v>
  </generation>
  <varray name="kpointlist" >
   <v>       0.00000000       0.00000000       0.00000000 </v>
   <v>       0.12500000       0.00000000       0.00000000 </v>
   <v>       0.25000000       0.00000000       0.00000000 </v>
   <v>       0.37500000       0.00000000       0.00000000 </v>
   <v>       0.50000000       0.00000000       0.00000000 </v>
   <v>       0.00000000       0.12500000       0.00000000 </v>
   <v>       0.12500000       0.12500000       0.00000000 </v>
   <v>       0.25000000       0.12500000       0.00000000 </v>
   <v>       0.37500000       0.12500000       0.00000000 </v>
   <v>       0.50000000       0.12500000       0.00000000 </v>
   <v>      -0.37500000       0.12500000       0.00000000 </v>
   <v>      -0.25000000       0.12500000       0.00000000 </v>
   <v>      -0.12500000       0.12500000       0.00000000 </v>
   <v>       0.00000000       0.25000000       0.00000000 </v>
   <v>       0.12500000       0.25000000       0.00000000 </v>
   <v>       0.25000000       0.25000000       0.00000000 </v>
   <v>       0.37500000       0.25000000       0.00000000 </v>
   <v>       0.50000000       0.25000000       0.00000000 </v>
   <v>      -0.37500000       0.25000000       0.00000000 </v>
   <v>      -0.25000000       0.25000000       0.00000000 </v>
   <v>      -0.12500000       0.25000000       0.00000000 </v>
   <v>      -0.00000000       0.37500000       0.00000000 </v>
   <v>       0.12500000       0.37500000       0.00000000 </v>
   <v>       0.25000000       0.37500000       0.00000000 </v>
   <v>       0.37500000       0.37500000       0.00000000 </v>
   <v>       0.50000000       0.37500000       0.00000000 </v>
   <v>      -0.37500000       0.37500000       0.00000000 </v>
   <v>      -0.25000000       0.37500000       0.00000000 </v>
   <v>      -0.12500000       0.37500000       0.00000000 </v>
   <v>       0.00000000       0.50000000       0.00000000 </v>
   <v>       0.12500000       0.50000000       0.00000000 </v>
   <v>       0.25000000       0.50000000       0.00000000 </v>
   <v>       0.37500000       0.50000000       0.00000000 </v>
   <v>       0.50000000       0.50000000       0.00000000 </v>
  </varray>
  <varray name="weights" >
   <v>       0.01562500 </v>
   <v>       0.03125000 </v>
   <v>       0.03125000 </v>
   <v>       0.03125000 </v>
   <v>       0.01562500 </v>
   <v>       0.03125000 </v>
   <v>       0.03125000 </v>
   <v>       0.03125000 </v>
   <v>       0.03125000 </v>
   <v>       0.03125000 </v>
   <v>       0.03125000 </v>
   <v>       0.03125000 </v>
   <v>       0.03125000 </v>
   <v>       0.03125000 </v>
   <v>       0.03125000 </v>
   <v>       0.03125000 </v>
   <v>       0.03125000 </v>
   <v>       0.03125000 </v>
   <v>       0.03125000 </v>
   <v>       0.03125000 </v>
   <v>       0.03125000 </v>
   <v>       0.03125000 </v>
   <v>       0.03125000 </v>
   <v>       0.03125000 </v>
   <v>       0.03125000 </v>
   <v>       0.03125000 </v>
   <v>       0.03125000 </v>
   <v>       0.03125000 </v>
   <v>       0.03125000 </v>
   <v>       0.01562500 </v>
   <v>       0.03125000 </v>
   <v>       0.03125000 </v>
   <v>       0.03125000 </v>
   <v>       0.01562500 </v>
  </varray>
 </kpoints>
 <parameters>
  <separator name="general" >
   <i type="string" name="SYSTEM">unknown system</i>
   <i type="logical" name="LCOMPAT"> F  </i>
  </separator>
  <separator name="electronic" >
   <i type="string" name="PREC">normal</i>
   <i name="ENMAX">    280.00000000</i>
   <i name="ENAUG">    373.43800000</i>
   <i name="EDIFF">      0.00010000</i>
   <i type="int" name="IALGO">    38</i>
   <i type="int" name="IWAVPR">    11</i>
   <i type="int" name="NBANDS">   120</i>
   <i name="NELECT">    159.00000000</i>
   <i type="int" name="TURBO">     0</i>
   <i type="int" name="IRESTART">     0</i>
   <i type="int" name="NREBOOT">     0</i>
   <i type="int" name="NMIN">     0</i>
   <i name="EREF">      0.00000000</i>
   <separator name="electronic smearing" >
    <i type="int" name="ISMEAR">     0</i>
    <i name="SIGMA">      0.20000000</i>
    <i name="KSPACING">      0.50000000</i>
    <i type="logical" name="KGAMMA"> T  </i>
   </separator>
   <separator name="electronic projectors" >
    <i type="logical" name="LREAL"> F  </i>
    <v name="ROPT">      0.00000000      0.00000000      0.00000000      0.00000000</v>
    <i type="int" name="LMAXPAW">  -100</i>
    <i type="int" name="LMAXMIX">     2</i>
    <i type="logical" name="NLSPLINE"> F  </i>
   </separator>
   <separator name="electronic startup" >
    <i type="int" name="ISTART">     0</i>
    <i type="int" name="ICHARG">     2</i>
    <i type="int" name="INIWAV">     1</i>
   </separator>
   <separator name="electronic spin" >
    <i type="int" name="ISPIN">     1</i>
    <i type="logical" name="LNONCOLLINEAR"> F  </i>
    <v name="MAGMOM">      1.00000000      1.00000000      1.00000000      1.00000000      1.00000000      1.00000000      1.00000000      1.00000000      1.00000000      1.00000000      1.00000000      1.00000000      1.00000000      1.00000000      1.00000000      1.00000000      1.00000000      1.00000000      1.00000000      1.00000000
      1.00000000      1.00000000      1.00000000      1.00000000      1.00000000      1.00000000      1.00000000</v>
    <i name="NUPDOWN">     -1.00000000</i>
    <i type="logical" name="LSORBIT"> F  </i>
    <v name="SAXIS">      0.00000000      0.00000000      1.00000000</v>
    <i type="logical" name="LSPIRAL"> F  </i>
    <v name="QSPIRAL">      0.00000000      0.00000000      0.00000000</v>
    <i type="logical" name="LZEROZ"> F  </i>
   </separator>
   <separator name="electronic exchange-correlation" >
    <i type="logical" name="LASPH"> F  </i>
    <i type="logical" name="LMETAGGA"> F  </i>
   </separator>
   <separator name="electronic convergence" >
    <i type="int" name="NELM">    60</i>
    <i type="int" name="NELMDL">    -5</i>
    <i type="int" name="NELMIN">     2</i>
    <i name="ENINI">    280.00000000</i>
    <separator name="electronic convergence detail" >
     <i type="logical" name="LDIAG"> T  </i>
     <i type="logical" name="LSUBROT"> F  </i>
     <i name="WEIMIN">      0.00100000</i>
     <i name="EBREAK">      0.00000021</i>
     <i name="DEPER">      0.30000000</i>
     <i type="int" name="NRMM">     4</i>
     <i name="TIME">      0.40000000</i>
    </separator>
   </separator>
   <separator name="electronic mixer" >
    <i name="AMIX">      0.40000000</i>
    <i name="BMIX">      1.00000000</i>
    <i name="AMIN">      0.10000000</i>
    <i name="AMIX_MAG">      1.60000000</i>
    <i name="BMIX_MAG">      1.00000000</i>
    <separator name="electronic mixer details" >
     <i type="int" name="IMIX">     4</i>
     <i type="logical" name="MIXFIRST"> F  </i>
     <i type="int" name="MAXMIX">   -45</i>
     <i name="WC">    100.00000000</i>
     <i type="int" name="INIMIX">     1</i>
     <i type="int" name="MIXPRE">     1</i>
     <i type="int" name="MREMOVE">     5</i>
    </separator>
   </separator>
   <separator name="electronic dipolcorrection" >
    <i type="logical" name="LDIPOL"> F  </i>
    <i type="logical" name="LMONO"> F  </i>
    <i type="int" name="IDIPOL">     0</i>
    <i name="EPSILON">      1.00000000</i>
    <v name="DIPOL">   -100.00000000   -100.00000000   -100.00000000</v>
    <i name="EFIELD">      0.00000000</i>
   </separator>
  </separator>
  <separator name="grids" >
   <i type="int" name="NGX">    42</i>
   <i type="int" name="NGY">    42</i>
   <i type="int" name="NGZ">   126</i>
   <i type="int" name="NGXF">    84</i>
   <i type="int" name="NGYF">    84</i>
   <i type="int" name="NGZF">   252</i>
   <i type="logical" name="ADDGRID"> F  </i>
  </separator>
  <separator name="ionic" >
   <i type="int" name="NSW">   100</i>
   <i type="int" name="IBRION">     1</i>
   <i type="int" name="ISIF">     3</i>
   <i name="PSTRESS">      0.00000000</i>
   <i name="EDIFFG">      0.00100000</i>
   <i type="int" name="NFREE">     0</i>
   <i name="POTIM">      0.50000000</i>
   <i name="SMASS">     -3.00000000</i>
   <i name="SCALEE">      1.00000000</i>
  </separator>
  <separator name="ionic md" >
   <i name="TEBEG">      0.00010000</i>
   <i name="TEEND">      0.00010000</i>
   <i type="int" name="NBLOCK">     1</i>
   <i type="int" name="KBLOCK">   100</i>
   <i type="int" name="NPACO">   256</i>
   <i name="APACO">     16.00000000</i>
  </separator>
  <separator name="symmetry" >
   <i type="int" name="ISYM">     0</i>
   <i name="SYMPREC">      0.00000001</i>
  </separator>
  <separator name="dos" >
   <i type="logical" name="LORBIT"> F  </i>
   <v name="RWIGS">     -1.00000000     -1.00000000     -1.00000000     -1.00000000</v>
   <i type="int" name="NEDOS">   301</i>
   <i name="EMIN">     10.00000000</i>
   <i name="EMAX">    -10.00000000</i>
   <i name="EFERMI">      0.00000000</i>
  </separator>
  <separator name="writing" >
   <i type="int" name="NWRITE">     2</i>
   <i type="logical" name="LWAVE"> F  </i>
   <i type="logical" name="LCHARG"> F  </i>
   <i type="logical" name="LPARD"> F  </i>
   <i type="logical" name="LVTOT"> F  </i>
   <i type="logical" name="LVHAR"> F  </i>
   <i type="logical" name="LELF"> F  </i>
   <i type="logical" name="LOPTICS"> F  </i>
   <v name="STM">      0.00000000      0.00000000      0.00000000      0.00000000      0.00000000      0.00000000      0.00000000</v>
  </separator>
  <separator name="performance" >
   <i type="int" name="NPAR">    40</i>
   <i type="int" name="NSIM">     4</i>
   <i type="int" name="NBLK">    -1</i>
   <i type="logical" name="LPLANE"> F  </i>
   <i type="logical" name="LSCALAPACK"> T  </i>
   <i type="logical" name="LSCAAWARE"> F  </i>
   <i type="logical" name="LSCALU"> F  </i>
   <i type="logical" name="LASYNC"> F  </i>
   <i type="logical" name="LORBITALREAL"> F  </i>
  </separator>
  <separator name="miscellaneous" >
   <i type="int" name="IDIOT">     3</i>
   <i type="logical" name="LMUSIC"> F  </i>
   <v name="POMASS">     50.94100000     95.94000000    183.85000000     32.06600000</v>
   <v name="DARWINR">      0.00000000      0.00000000      0.00000000      0.00000000</v>
   <v name="DARWINV">      1.00000000      1.00000000      1.00000000      1.00000000</v>
   <i type="logical" name="LCORR"> T  </i>
  </separator>
  <i type="logical" name="GGA_COMPAT"> T  </i>
  <i type="logical" name="LBERRY"> F  </i>
  <i type="int" name="ICORELEVEL">     0</i>
  <i type="logical" name="LDAU"> F  </i>
  <i type="int" name="I_CONSTRAINED_M">     0</i>
  <separator name="electronic exchange-correlation" >
   <i type="string" name="GGA">--</i>
   <i type="int" name="VOSKOWN">     0</i>
   <i type="logical" name="LHFCALC"> F  </i>
   <i type="string" name="PRECFOCK"></i>
   <i type="logical" name="LSYMGRAD"> F  </i>
   <i type="logical" name="LHFONE"> F  </i>
   <i type="logical" name="LRHFCALC"> F  </i>
   <i type="logical" name="LTHOMAS"> F  </i>
   <i type="logical" name="LMODELHF"> F  </i>
   <i name="ENCUT4O">     -1.00000000</i>
   <i type="int" name="EXXOEP">     0</i>
   <i type="int" name="FOURORBIT">     0</i>
   <i name="AEXX">      0.00000000</i>
   <i name="HFALPHA">      0.00000000</i>
   <i name="MCALPHA">      0.00000000</i>
   <i name="ALDAX">      1.00000000</i>
   <i name="AGGAX">      1.00000000</i>
   <i name="ALDAC">      1.00000000</i>
   <i name="AGGAC">      1.00000000</i>
   <i type="int" name="NKREDX">     1</i>
   <i type="int" name="NKREDY">     1</i>
   <i type="int" name="NKREDZ">     1</i>
   <i type="logical" name="SHIFTRED"> F  </i>
   <i type="logical" name="ODDONLY"> F  </i>
   <i type="logical" name="EVENONLY"> F  </i>
   <i type="int" name="LMAXFOCK">     0</i>
   <i type="int" name="NMAXFOCKAE">     0</i>
   <i type="logical" name="LFOCKAEDFT"> F  </i>
   <i name="HFSCREEN">      0.00000000</i>
   <i name="HFSCREENC">      0.00000000</i>
   <i type="int" name="NBANDSGWLOW">     0</i>
  </separator>
  <separator name="vdW DFT" >
   <i type="logical" name="LUSE_VDW"> F  </i>
   <i name="Zab_VDW">     -0.84910000</i>
   <i name="PARAM1">      0.12340000</i>
   <i name="PARAM2">      1.00000000</i>
   <i name="PARAM3">      0.00000000</i>
  </separator>
  <separator name="model GW" >
   <i type="int" name="MODEL_GW">     0</i>
   <i name="MODEL_EPS0">     58.26239943</i>
   <i name="MODEL_ALPHA">      1.00000000</i>
  </separator>
  <separator name="linear response parameters" >
   <i type="logical" name="LEPSILON"> F  </i>
   <i type="logical" name="LRPA"> F  </i>
   <i type="logical" name="LNABLA"> F  </i>
   <i type="logical" name="LVEL"> F  </i>
   <i type="int" name="KINTER">     0</i>
   <i name="CSHIFT">      0.10000000</i>
   <i name="OMEGAMAX">     -1.00000000</i>
   <i name="DEG_THRESHOLD">      0.00200000</i>
  </separator>
  <separator name="orbital magnetization" >
   <i type="logical" name="NUCIND"> F  </i>
   <v name="MAGPOS">      0.00000000      0.00000000      0.00000000</v>
   <i type="logical" name="LNICSALL"> T  </i>
   <i type="logical" name="ORBITALMAG"> F  </i>
   <i type="logical" name="LMAGBLOCH"> F  </i>
   <i type="logical" name="LCHIMAG"> F  </i>
   <i type="logical" name="LGAUGE"> T  </i>
   <i type="int" name="MAGATOM">     0</i>
   <v name="MAGDIPOL">      0.00000000      0.00000000      0.00000000</v>
   <v name="AVECCONST">      0.00000000      0.00000000      0.00000000</v>
  </separator>
  <separator name="response functions" >
   <i type="logical" name="LADDER"> F  </i>
   <i type="logical" name="LFXC"> F  </i>
   <i type="logical" name="LHARTREE"> T  </i>
   <i type="int" name="IBSE">     0</i>
   <v type="int" name="KPOINT">    -1     0     0     0</v>
   <i type="logical" name="LTCTE"> F  </i>
   <i type="logical" name="LTETE"> F  </i>
   <i type="logical" name="LTRIPLET"> F  </i>
   <i type="logical" name="LFXCEPS"> F  </i>
   <i type="logical" name="LFXHEG"> F  </i>
   <i type="int" name="NATURALO">     0</i>
   <i type="logical" name="L2ORDER"> F  </i>
   <i type="logical" name="LUSEW"> F  </i>
   <i name="ENCUTGW">     -2.00000000</i>
   <i name="ENCUTGWSOFT">     -2.00000000</i>
   <i name="ENCUTLF">     -1.00000000</i>
   <i type="int" name="LMAXMP2">    -1</i>
   <i name="SCISSOR">      0.00000000</i>
   <i type="int" name="NOMEGA">     0</i>
   <i type="int" name="NOMEGAR">     0</i>
   <i type="int" name="NBANDSGW">    -1</i>
   <i type="int" name="NBANDSO">    -1</i>
   <i type="int" name="NBANDSV">    -1</i>
   <i type="int" name="NELM">     1</i>
   <i type="int" name="NELMHF">     1</i>
   <i type="int" name="DIM">     3</i>
   <i type="int" name="ANTIRES">     0</i>
   <i name="OMEGAMAX">    -30.00000000</i>
   <i name="OMEGAMIN">    -30.00000000</i>
   <i name="OMEGATL">   -200.00000000</i>
   <i type="int" name="OMEGAGRID">     0</i>
   <i name="CSHIFT">     -0.10000000</i>
   <i type="logical" name="SELFENERGY"> F  </i>
   <i type="logical" name="LSPECTRAL"> F  </i>
   <i type="logical" name="LSPECTRALGW"> F  </i>
   <i type="logical" name="LSINGLES"> F  </i>
   <i type="logical" name="LFERMIGW"> F  </i>
   <i type="logical" name="ODDONLYGW"> F  </i>
   <i type="logical" name="EVENONLYGW"> F  </i>
   <i type="int" name="NKREDLFX">     1</i>
   <i type="int" name="NKREDLFY">     1</i>
   <i type="int" name="NKREDLFZ">     1</i>
   <i type="int" name="MAXMEM">  1800</i>
   <i type="int" name="TELESCOPE">     0</i>
   <i type="int" name="TAUPAR">     1</i>
   <i type="int" name="OMEGAPAR">    -1</i>
   <i name="LAMBDA">      1.00000000</i>
  </separator>
  <separator name="External order field" >
   <i name="OFIELD_KAPPA">      0.00000000</i>
   <v name="OFIELD_K">      0.00000000      0.00000000      0.00000000</v>
   <i name="OFIELD_Q6_NEAR">      0.00000000</i>
   <i name="OFIELD_Q6_FAR">      0.00000000</i>
   <i name="OFIELD_A">      0.00000000</i>
  </separator>
 </parameters>
 <atominfo>
  <atoms>      27 </atoms>
  <types>       4 </types>
  <array name="atoms" >
   <dimension dim="1">ion</dimension>
   <field type="string">element</field>
   <field type="int">atomtype</field>
   <set>
    <rc><c>V </c><c>   1</c></rc>
    <rc><c>V </c><c>   1</c></rc>
    <rc><c>V </c><c>   1</c></rc>
    <rc><c>Mo</c><c>   2</c></rc>
    <rc><c>Mo</c><c>   2</c></rc>
    <rc><c>Mo</c><c>   2</c></rc>
    <rc><c>W </c><c>   3</c></rc>
    <rc><c>W </c><c>   3</c></rc>
    <rc><c>W </c><c>   3</c></rc>
    <rc><c>S </c><c>   4</c></rc>
    <rc><c>S </c><c>   4</c></rc>
    <rc><c>S </c><c>   4</c></rc>
    <rc><c>S </c><c>   4</c></rc>
    <rc><c>S </c><c>   4</c></rc>
    <rc><c>S </c><c>   4</c></rc>
    <rc><c>S </c><c>   4</c></rc>
    <rc><c>S </c><c>   4</c></rc>
    <rc><c>S </c><c>   4</c></rc>
    <rc><c>S </c><c>   4</c></rc>
    <rc><c>S </c><c>   4</c></rc>
    <rc><c>S </c><c>   4</c></rc>
    <rc><c>S </c><c>   4</c></rc>
    <rc><c>S </c><c>   4</c></rc>
    <rc><c>S </c><c>   4</c></rc>
    <rc><c>S </c><c>   4</c></rc>
    <rc><c>S </c><c>   4</c></rc>
    <rc><c>S </c><c>   4</c></rc>
   </set>
  </array>
  <array name="atomtypes" >
   <dimension dim="1">type</dimension>
   <field type="int">atomspertype</field>
   <field type="string">element</field>
   <field>mass</field>
   <field>valence</field>
   <field type="string">pseudopotential</field>
   <set>
    <rc><c>   3</c><c>V </c><c>     50.94100000</c><c>      5.00000000</c><c> PAW_PBE V 08Apr2002                    </c></rc>
    <rc><c>   3</c><c>Mo</c><c>     95.94000000</c><c>      6.00000000</c><c> PAW_PBE Mo 08Apr2002                   </c></rc>
    <rc><c>   3</c><c>W </c><c>    183.85000000</c><c>      6.00000000</c><c> PAW_PBE W 08Apr2002                    </c></rc>
    <rc><c>  18</c><c>S </c><c>     32.06600000</c><c>      6.00000000</c><c>  PAW_PBE S 17Jan2003                   </c></rc>
   </set>
  </array>
 </atominfo>
 <structure name="initialpos" >
  <crystal>
   <varray name="basis" >
    <v>       8.66999996       5.03999989       0.00000000 </v>
    <v>      -8.66999982       5.04000013       0.00000000 </v>
    <v>       0.00000000       0.00000000      30.00000000 </v>
   </varray>
   <i name="volume">   2621.80797419 </i>
   <varray name="rec_basis" >
    <v>       0.05767013       0.09920635       0.00000000 </v>
    <v>      -0.05767013       0.09920635       0.00000000 </v>
    <v>       0.00000000       0.00000000       0.03333333 </v>
   </varray>
  </crystal>
  <varray name="positions" >
   <v>       0.00000000       0.00000000       0.00000000 </v>
   <v>       0.00000000       0.66666669       0.00000000 </v>
   <v>       0.66666669       0.66666669       0.00000000 </v>
   <v>       0.33333334       0.00000000       0.00000000 </v>
   <v>       0.66666669       0.33333334       0.00000000 </v>
   <v>       0.33333334       0.66666669       0.00000000 </v>
   <v>       1.00000000       0.33333334       0.00000000 </v>
   <v>       0.33333334       0.33333334       0.00000000 </v>
   <v>       0.66666669       0.00000000       0.00000000 </v>
   <v>       0.11068511       0.22244981       0.95539999 </v>
   <v>       0.22244981       0.11068511       0.04460000 </v>
   <v>       0.11068511       0.55578315       0.95539999 </v>
   <v>       0.22244981       0.44401845       0.04460000 </v>
   <v>       0.11068511       0.88911647       0.95539999 </v>
   <v>       0.22244981       0.77735180       0.04460000 </v>
   <v>       0.44401845       0.22244981       0.95539999 </v>
   <v>       0.55578315       0.11068511       0.04460000 </v>
   <v>       0.44401845       0.55578315       0.95539999 </v>
   <v>       0.55578315       0.44401845       0.04460000 </v>
   <v>       0.44401845       0.88911647       0.95539999 </v>
   <v>       0.55578315       0.77735180       0.04460000 </v>
   <v>       0.77735180       0.22244981       0.95539999 </v>
   <v>       0.88911647       0.11068511       0.04460000 </v>
   <v>       0.77735180       0.55578315       0.95539999 </v>
   <v>       0.88911647       0.44401845       0.04460000 </v>
   <v>       0.77735180       0.88911647       0.95539999 </v>
   <v>       0.88911647       0.77735180       0.04460000 </v>
  </varray>
 </structure>
 <calculation>
  <scstep>
   <time name="dav">   21.79   21.84</time>
   <time name="total">   21.84   21.89</time>
   <energy>
    <i name="alphaZ">     81.65567618 </i>
    <i name="ewald">  41891.17176702 </i>
    <i name="hartreedc"> -47723.81655903 </i>
    <i name="XCdc">   -242.92509175 </i>
    <i name="pawpsdc">   3467.42045192 </i>
    <i name="pawaedc">  -2871.19716117 </i>
    <i name="eentropy">     -0.54904748 </i>
    <i name="bandstr">   -237.66988612 </i>
    <i name="atom">   6761.44252427 </i>
    <i name="e_fr_energy">   1125.53267384 </i>
    <i name="e_wo_entrp">   1126.08172132 </i>
    <i name="e_0_energy">   1125.80719758 </i>
   </energy>
  </scstep>
  <scstep>
   <time name="dav">   28.14   28.21</time>
   <time name="total">   28.14   28.22</time>
   <energy>
    <i name="e_fr_energy">     -1.60659530 </i>
    <i name="e_wo_entrp">     -1.39544262 </i>
    <i name="e_0_energy">     -1.50101896 </i>
   </energy>
  </scstep>
  <scstep>
   <time name="dav">   27.49   27.55</time>
   <time name="total">   27.49   27.56</time>
   <energy>
    <i name="e_fr_energy">   -199.77300642 </i>
    <i name="e_wo_entrp">   -199.50746756 </i>
    <i name="e_0_energy">   -199.64023699 </i>
   </energy>
  </scstep>
  <scstep>
   <time name="dav">   29.77   29.84</time>
   <time name="total">   29.77   29.85</time>
   <energy>
    <i name="e_fr_energy">   -208.97651094 </i>
    <i name="e_wo_entrp">   -208.68326228 </i>
    <i name="e_0_energy">   -208.82988661 </i>
   </energy>
  </scstep>
  <scstep>
   <time name="dav">   28.07   28.14</time>
   <time name="total">   28.54   28.62</time>
   <energy>
    <i name="e_fr_energy">   -209.29850106 </i>
    <i name="e_wo_entrp">   -209.00821559 </i>
    <i name="e_0_energy">   -209.15335832 </i>
   </energy>
  </scstep>
  <scstep>
   <time name="dav">   30.29   30.36</time>
   <time name="total">   30.79   30.87</time>
   <energy>
    <i name="e_fr_energy">   -237.71609711 </i>
    <i name="e_wo_entrp">   -237.45554699 </i>
    <i name="e_0_energy">   -237.58582205 </i>
   </energy>
  </scstep>
  <scstep>
   <time name="dav">   32.73   32.80</time>
   <time name="total">   33.23   33.32</time>
   <energy>
    <i name="e_fr_energy">   -196.62973395 </i>
    <i name="e_wo_entrp">   -196.30585572 </i>
    <i name="e_0_energy">   -196.46779483 </i>
   </energy>
  </scstep>
  <scstep>
   <time name="dav">   29.65   29.72</time>
   <time name="total">   30.16   30.24</time>
   <energy>
    <i name="e_fr_energy">   -189.65389630 </i>
    <i name="e_wo_entrp">   -189.34690126 </i>
    <i name="e_0_energy">   -189.50039878 </i>
   </energy>
  </scstep>
  <scstep>
   <time name="dav">   31.44   31.52</time>
   <time name="total">   31.96   32.05</time>
   <energy>
    <i name="e_fr_energy">   -188.22046088 </i>
    <i name="e_wo_entrp">   -187.89091888 </i>
    <i name="e_0_energy">   -188.05568988 </i>
   </energy>
  </scstep>
  <scstep>
   <time name="dav">   32.40   32.48</time>
   <time name="total">   32.93   33.02</time>
   <energy>
    <i name="e_fr_energy">   -186.95516199 </i>
    <i name="e_wo_entrp">   -186.60259250 </i>
    <i name="e_0_energy">   -186.77887725 </i>
   </energy>
  </scstep>
  <scstep>
   <time name="dav">   32.55   32.63</time>
   <time name="total">   33.08   33.17</time>
   <energy>
    <i name="e_fr_energy">   -187.02461069 </i>
    <i name="e_wo_entrp">   -186.68285627 </i>
    <i name="e_0_energy">   -186.85373348 </i>
   </energy>
  </scstep>
  <scstep>
   <time name="dav">   31.31   31.39</time>
   <time name="total">   31.85   31.93</time>
   <energy>
    <i name="e_fr_energy">   -186.94194399 </i>
    <i name="e_wo_entrp">   -186.60516990 </i>
    <i name="e_0_energy">   -186.77355695 </i>
   </energy>
  </scstep>
  <scstep>
   <time name="dav">   31.60   31.68</time>
   <time name="total">   32.14   32.22</time>
   <energy>
    <i name="e_fr_energy">   -186.88506533 </i>
    <i name="e_wo_entrp">   -186.54829989 </i>
    <i name="e_0_energy">   -186.71668261 </i>
   </energy>
  </scstep>
  <scstep>
   <time name="dav">   31.04   31.11</time>
   <time name="total">   31.57   31.66</time>
   <energy>
    <i name="e_fr_energy">   -186.84541406 </i>
    <i name="e_wo_entrp">   -186.50024268 </i>
    <i name="e_0_energy">   -186.67282837 </i>
   </energy>
  </scstep>
  <scstep>
   <time name="dav">   30.75   30.82</time>
   <time name="total">   31.28   31.36</time>
   <energy>
    <i name="e_fr_energy">   -186.84198811 </i>
    <i name="e_wo_entrp">   -186.49684045 </i>
    <i name="e_0_energy">   -186.66941428 </i>
   </energy>
  </scstep>
  <scstep>
   <time name="dav">   32.61   32.69</time>
   <time name="total">   33.15   33.23</time>
   <energy>
    <i name="e_fr_energy">   -186.84019282 </i>
    <i name="e_wo_entrp">   -186.49567732 </i>
    <i name="e_0_energy">   -186.66793507 </i>
   </energy>
  </scstep>
  <scstep>
   <time name="dav">   30.56   30.64</time>
   <time name="total">   31.10   31.18</time>
   <energy>
    <i name="e_fr_energy">   -186.83798883 </i>
    <i name="e_wo_entrp">   -186.49488663 </i>
    <i name="e_0_energy">   -186.66643773 </i>
   </energy>
  </scstep>
  <scstep>
   <time name="dav">   30.06   30.13</time>
   <time name="total">   30.60   30.67</time>
   <energy>
    <i name="e_fr_energy">   -186.83767933 </i>
    <i name="e_wo_entrp">   -186.49398526 </i>
    <i name="e_0_energy">   -186.66583229 </i>
   </energy>
  </scstep>
  <scstep>
   <time name="dav">   25.01   25.07</time>
   <time name="total">   25.05   25.11</time>
   <energy>
    <i name="alphaZ">     81.65567618 </i>
    <i name="ewald">  41891.17176702 </i>
    <i name="hartreedc"> -47818.60386688 </i>
    <i name="XCdc">   -231.69433275 </i>
    <i name="pawpsdc">   4194.33557472 </i>
    <i name="pawaedc">  -3612.35457683 </i>
    <i name="eentropy">     -0.34368585 </i>
    <i name="bandstr">  -1452.44671446 </i>
    <i name="atom">   6761.44252427 </i>
    <i name="e_fr_energy">   -186.83763458 </i>
    <i name="e_wo_entrp">   -186.49394872 </i>
    <i name="e_0_energy">   -186.66579165 </i>
   </energy>
  </scstep>
  <structure>
   <crystal>
    <varray name="basis" >
     <v>       8.66999996       5.03999989       0.00000000 </v>
     <v>      -8.66999982       5.04000013       0.00000000 </v>
     <v>       0.00000000       0.00000000      30.00000000 </v>
    </varray>
    <i name="volume">   2621.80797419 </i>
    <varray name="rec_basis" >
     <v>       0.05767013       0.09920635       0.00000000 </v>
     <v>      -0.05767013       0.09920635       0.00000000 </v>
     <v>       0.00000000       0.00000000       0.03333333 </v>
    </varray>
   </crystal>
   <varray name="positions" >
    <v>       0.00000000       0.00000000       0.00000000 </v>
    <v>       0.00000000       0.66666669       0.00000000 </v>
    <v>       0.66666669       0.66666669       0.00000000 </v>
    <v>       0.33333334       0.00000000       0.00000000 </v>
    <v>       0.66666669       0.33333334       0.00000000 </v>
    <v>       0.33333334       0.66666669       0.00000000 </v>
    <v>       1.00000000       0.33333334       0.00000000 </v>
    <v>       0.33333334       0.33333334       0.00000000 </v>
    <v>       0.66666669       0.00000000       0.00000000 </v>
    <v>       0.11068511       0.22244981       0.95539999 </v>
    <v>       0.22244981       0.11068511       0.04460000 </v>
    <v>       0.11068511       0.55578315       0.95539999 </v>
    <v>       0.22244981       0.44401845       0.04460000 </v>
    <v>       0.11068511       0.88911647       0.95539999 </v>
    <v>       0.22244981       0.77735180       0.04460000 </v>
    <v>       0.44401845       0.22244981       0.95539999 </v>
    <v>       0.55578315       0.11068511       0.04460000 </v>
    <v>       0.44401845       0.55578315       0.95539999 </v>
    <v>       0.55578315       0.44401845       0.04460000 </v>
    <v>       0.44401845       0.88911647       0.95539999 </v>
    <v>       0.55578315       0.77735180       0.04460000 </v>
    <v>       0.77735180       0.22244981       0.95539999 </v>
    <v>       0.88911647       0.11068511       0.04460000 </v>
    <v>       0.77735180       0.55578315       0.95539999 </v>
    <v>       0.88911647       0.44401845       0.04460000 </v>
    <v>       0.77735180       0.88911647       0.95539999 </v>
    <v>       0.88911647       0.77735180       0.04460000 </v>
   </varray>
  </structure>
  <varray name="forces" >
   <v>       0.29775482      -0.00864897       0.00941793 </v>
   <v>       0.02795118       0.11532965       0.00079790 </v>
   <v>       0.11088312      -0.10549414      -0.01404544 </v>
   <v>       0.24771830       0.08097733       0.10383858 </v>
   <v>      -0.01885062      -0.23477285       0.03559318 </v>
   <v>      -0.27941776       0.14439181      -0.05576566 </v>
   <v>      -0.32734619       0.14972268      -0.09608160 </v>
   <v>       0.30494402       0.17990669      -0.11032835 </v>
   <v>      -0.44079250      -0.33964650       0.09671062 </v>
   <v>       0.45583124      -0.54739496      -2.16286301 </v>
   <v>      -0.59615497      -0.55509048       2.13795593 </v>
   <v>      -0.63939080      -0.15415517      -2.14917157 </v>
   <v>      -0.05426441      -0.12913432       2.84005580 </v>
   <v>      -0.32507572      -0.68017214      -1.40325568 </v>
   <v>      -0.54129569      -0.68410860       2.14450991 </v>
   <v>      -0.07979654      -0.00145544      -2.88064337 </v>
   <v>       0.05927760       0.00741486       2.97250923 </v>
   <v>       0.60361240       0.52190595      -2.15393840 </v>
   <v>      -0.59523744       0.55508696       2.17555132 </v>
   <v>       0.23033539       0.12460296      -2.92374324 </v>
   <v>       0.66395667       0.17913948       2.09685466 </v>
   <v>       0.30234834       0.03608356      -2.87244916 </v>
   <v>       0.59722868      -0.01229395       2.08028976 </v>
   <v>      -0.32765230       0.67044313      -1.38921350 </v>
   <v>      -0.37216842       0.68394601       2.16623973 </v>
   <v>       0.76155364       0.00008484      -1.42657592 </v>
   <v>      -0.06595204       0.00333161       0.77775035 </v>
  </varray>
  <varray name="stress" >
   <v>       7.45235334       0.08555926      -1.53909183 </v>
   <v>       0.08555933       4.54056234       0.06459046 </v>
   <v>      -1.53909191       0.06459061      31.15668031 </v>
  </varray>
  <energy>
   <i name="e_fr_energy">   -186.83763458 </i>
   <i name="e_wo_entrp">   -186.66579165 </i>
   <i name="e_0_energy">     -0.34368585 </i>
  </energy>
  <time name="totalsc">  616.55  618.18</time>
 </calculation>
 <calculation>
  <scstep>
   <time name="dav">   21.64   21.70</time>
   <time name="total">   22.19   22.24</time>
   <energy>
    <i name="alphaZ">     78.86732827 </i>
    <i name="ewald">  39350.11458912 </i>
    <i name="hartreedc"> -45297.48983049 </i>
    <i name="XCdc">   -239.18018334 </i>
    <i name="pawpsdc">   4193.11695692 </i>
    <i name="pawaedc">  -3611.11863708 </i>
    <i name="eentropy">     -0.28174000 </i>
    <i name="bandstr">  -1422.96307853 </i>
    <i name="atom">   6761.44252427 </i>
    <i name="e_fr_energy">   -187.49207087 </i>
    <i name="e_wo_entrp">   -187.21033087 </i>
    <i name="e_0_energy">   -187.35120087 </i>
   </energy>
  </scstep>
  <scstep>
   <time name="dav">   29.31   29.38</time>
   <time name="total">   29.84   29.92</time>
   <energy>
    <i name="e_fr_energy">   -189.51307825 </i>
    <i name="e_wo_entrp">   -189.17673273 </i>
    <i name="e_0_energy">   -189.34490549 </i>
   </energy>
  </scstep>
  <scstep>
   <time name="dav">   29.97   30.05</time>
   <time name="total">   30.52   30.60</time>
   <energy>
    <i name="e_fr_energy">   -189.32865085 </i>
    <i name="e_wo_entrp">   -189.06702116 </i>
    <i name="e_0_energy">   -189.19783600 </i>
   </energy>
  </scstep>
  <scstep>
   <time name="dav">   29.79   29.86</time>
   <time name="total">   30.33   30.41</time>
   <energy>
    <i name="e_fr_energy">   -188.78417388 </i>
    <i name="e_wo_entrp">   -188.50074284 </i>
    <i name="e_0_energy">   -188.64245836 </i>
   </energy>
  </scstep>
  <scstep>
   <time name="dav">   27.29   27.36</time>
   <time name="total">   27.84   27.91</time>
   <energy>
    <i name="e_fr_energy">   -188.82965734 </i>
    <i name="e_wo_entrp">   -188.54229932 </i>
    <i name="e_0_energy">   -188.68597833 </i>
   </energy>
  </scstep>
  <scstep>
   <time name="dav">   29.96   30.03</time>
   <time name="total">   30.50   30.59</time>
   <energy>
    <i name="e_fr_energy">   -188.71323098 </i>
    <i name="e_wo_entrp">   -188.42959984 </i>
    <i name="e_0_energy">   -188.57141541 </i>
   </energy>
  </scstep>
  <scstep>
   <time name="dav">   29.45   29.52</time>
   <time name="total">   29.99   30.07</time>
   <energy>
    <i name="e_fr_energy">   -188.70089046 </i>
    <i name="e_wo_entrp">   -188.41547473 </i>
    <i name="e_0_energy">   -188.55818259 </i>
   </energy>
  </scstep>
  <scstep>
   <time name="dav">   29.01   29.08</time>
   <time name="total">   29.55   29.63</time>
   <energy>
    <i name="e_fr_energy">   -188.66991416 </i>
    <i name="e_wo_entrp">   -188.38609404 </i>
    <i name="e_0_energy">   -188.52800410 </i>
   </energy>
  </scstep>
  <scstep>
   <time name="dav">   28.84   28.91</time>
   <time name="total">   29.38   29.46</time>
   <energy>
    <i name="e_fr_energy">   -188.64672255 </i>
    <i name="e_wo_entrp">   -188.36444639 </i>
    <i name="e_0_energy">   -188.50558447 </i>
   </energy>
  </scstep>
  <scstep>
   <time name="dav">   26.34   26.40</time>
   <time name="total">   26.89   26.96</time>
   <energy>
    <i name="e_fr_energy">   -188.64376928 </i>
    <i name="e_wo_entrp">   -188.36234413 </i>
    <i name="e_0_energy">   -188.50305670 </i>
   </energy>
  </scstep>
  <scstep>
   <time name="dav">   31.59   31.66</time>
   <time name="total">   32.13   32.22</time>
   <energy>
    <i name="e_fr_energy">   -188.64327030 </i>
    <i name="e_wo_entrp">   -188.36307843 </i>
    <i name="e_0_energy">   -188.50317437 </i>
   </energy>
  </scstep>
  <scstep>
   <time name="dav">   27.33   27.40</time>
   <time name="total">   27.88   27.96</time>
   <energy>
    <i name="e_fr_energy">   -188.64328383 </i>
    <i name="e_wo_entrp">   -188.36313485 </i>
    <i name="e_0_energy">   -188.50320934 </i>
   </energy>
  </scstep>
  <scstep>
   <time name="dav">   19.06   19.11</time>
   <time name="total">   19.60   19.66</time>
   <energy>
    <i name="e_fr_energy">   -188.64342091 </i>
    <i name="e_wo_entrp">   -188.36300106 </i>
    <i name="e_0_energy">   -188.50321098 </i>
   </energy>
  </scstep>
  <scstep>
   <time name="dav">   19.08   19.13</time>
   <time name="total">   19.63   19.68</time>
   <energy>
    <i name="e_fr_energy">   -188.64365574 </i>
    <i name="e_wo_entrp">   -188.36325707 </i>
    <i name="e_0_energy">   -188.50345641 </i>
   </energy>
  </scstep>
  <scstep>
   <time name="dav">   21.73   21.78</time>
   <time name="total">   21.76   21.82</time>
   <energy>
    <i name="alphaZ">     78.86732827 </i>
    <i name="ewald">  39350.11458912 </i>
    <i name="hartreedc"> -45315.45396094 </i>
    <i name="XCdc">   -238.03190465 </i>
    <i name="pawpsdc">   3948.18460805 </i>
    <i name="pawaedc">  -3362.66264452 </i>
    <i name="eentropy">     -0.28044069 </i>
    <i name="bandstr">  -1410.82381791 </i>
    <i name="atom">   6761.44252427 </i>
    <i name="e_fr_energy">   -188.64371901 </i>
    <i name="e_wo_entrp">   -188.36327832 </i>
    <i name="e_0_energy">   -188.50349866 </i>
   </energy>
  </scstep>
  <structure>
   <crystal>
    <varray name="basis" >
     <v>       8.86017745       5.10907988       0.00000000 </v>
     <v>      -8.85765566       5.10474227       0.00000000 </v>
     <v>       0.00000000       0.00000000      30.00000000 </v>
    </varray>
    <i name="volume">   2714.50177964 </i>
    <varray name="rec_basis" >
     <v>       0.05641634       0.09789261       0.00000000 </v>
     <v>      -0.05646428       0.09792048       0.00000000 </v>
     <v>       0.00000000       0.00000000       0.03333333 </v>
    </varray>
   </crystal>
   <varray name="positions" >
    <v>       0.00078701      -0.00086980       0.00001514 </v>
    <v>       0.00062973       0.66714089       0.00000128 </v>
    <v>       0.66647029       0.66585330      -0.00002259 </v>
    <v>       0.33441009      -0.00030164       0.00016698 </v>
    <v>       0.66549062       0.33226217       0.00005724 </v>
    <v>       0.33324701       0.66813513      -0.00008968 </v>
    <v>       0.99980584       0.33496064      -0.00015451 </v>
    <v>       0.33504278       0.33334597      -0.00017742 </v>
    <v>       0.66381479      -0.00039919       0.00015552 </v>
    <v>       0.10933349       0.21856179       0.95192191 </v>
    <v>       0.21813456       0.10968706       0.04803802 </v>
    <v>       0.10816844       0.55682426       0.95194393 </v>
    <v>       0.22168080       0.44355139       0.04916706 </v>
    <v>       0.10652541       0.88676559       0.95314343 </v>
    <v>       0.21766971       0.77558364       0.04804856 </v>
    <v>       0.44378948       0.22266485       0.95076766 </v>
    <v>       0.55598356       0.11055568       0.04938006 </v>
    <v>       0.44819563       0.55660164       0.95193627 </v>
    <v>       0.55678374       0.44833113       0.04809848 </v>
    <v>       0.44525563       0.88907198       0.95069835 </v>
    <v>       0.55848774       0.77636192       0.04797193 </v>
    <v>       0.77836567       0.22178132       0.95078084 </v>
    <v>       0.89071921       0.10896469       0.04794529 </v>
    <v>       0.77964894       0.55990346       0.95316601 </v>
    <v>       0.89135438       0.44832724       0.04808350 </v>
    <v>       0.77947097       0.88699811       0.95310593 </v>
    <v>       0.88894892       0.77755123       0.04585069 </v>
   </varray>
  </structure>
  <varray name="forces" >
   <v>       0.18265813       0.06195600      -0.01423223 </v>
   <v>       0.12451676       0.08401829      -0.01136926 </v>
   <v>       0.05941475      -0.15030794      -0.10066827 </v>
   <v>       0.40756921       0.37234771       0.03862783 </v>
   <v>       0.12318233      -0.47180107      -0.05077305 </v>
   <v>      -0.24522816       0.12300386       0.06338321 </v>
   <v>      -0.22484142       0.18409396       0.07108567 </v>
   <v>       0.23480943       0.13309592      -0.03604678 </v>
   <v>      -0.62334268      -0.31145519       0.05265505 </v>
   <v>      -0.05658016       0.07579540       0.13447277 </v>
   <v>      -0.06224031       0.05582829      -0.04689398 </v>
   <v>      -0.00045497      -0.10052161      -0.10813502 </v>
   <v>       0.07690338      -0.10845590      -0.16042132 </v>
   <v>       0.00227473      -0.05362373       0.08532499 </v>
   <v>      -0.04429962      -0.06867504       0.07543109 </v>
   <v>      -0.13426862      -0.01666704      -0.12926435 </v>
   <v>       0.14066936      -0.01171793       0.30346848 </v>
   <v>       0.07938604      -0.05494235       0.02364989 </v>
   <v>      -0.07037517      -0.04434558       0.04572037 </v>
   <v>       0.05082053       0.10071015      -0.22009670 </v>
   <v>      -0.02368433       0.11917394      -0.02479983 </v>
   <v>       0.12569215      -0.00229140       0.00165431 </v>
   <v>      -0.10627975      -0.00857941      -0.24051426 </v>
   <v>      -0.01399471       0.05174736       0.15277809 </v>
   <v>       0.09748100       0.05064951      -0.04241301 </v>
   <v>      -0.09643254      -0.00601613       0.27460321 </v>
   <v>      -0.00335539      -0.00302006      -0.13722691 </v>
  </varray>
  <varray name="stress" >
   <v>     -19.98594908      -0.00495433       0.04152520 </v>
   <v>      -0.00495430     -19.57609590      -0.01800513 </v>
   <v>       0.04152506      -0.01800506      -1.69452410 </v>
  </varray>
  <energy>
   <i name="e_fr_energy">   -188.64371901 </i>
   <i name="e_wo_entrp">   -188.50349866 </i>
   <i name="e_0_energy">     -0.28044069 </i>
  </energy>
  <time name="totalsc">  450.41  451.72</time>
 </calculation>
 <calculation>
  <scstep>
   <time name="dav">   23.76   23.82</time>
   <time name="total">   24.30   24.36</time>
   <energy>
    <i name="alphaZ">     82.31564607 </i>
    <i name="ewald">  41287.57705383 </i>
    <i name="hartreedc"> -47283.94188184 </i>
    <i name="XCdc">   -233.87280260 </i>
    <i name="pawpsdc">   3948.10841288 </i>
    <i name="pawaedc">  -3362.58657265 </i>
    <i name="eentropy">     -0.23484090 </i>
    <i name="bandstr">  -1389.40288610 </i>
    <i name="atom">   6761.44252427 </i>
    <i name="e_fr_energy">   -190.59534704 </i>
    <i name="e_wo_entrp">   -190.36050614 </i>
    <i name="e_0_energy">   -190.47792659 </i>
   </energy>
  </scstep>
  <scstep>
   <time name="dav">   29.67   29.74</time>
   <time name="total">   30.19   30.27</time>
   <energy>
    <i name="e_fr_energy">   -190.53290952 </i>
    <i name="e_wo_entrp">   -190.30931707 </i>
    <i name="e_0_energy">   -190.42111329 </i>
   </energy>
  </scstep>
  <scstep>
   <time name="dav">   30.14   30.21</time>
   <time name="total">   30.67   30.75</time>
   <energy>
    <i name="e_fr_energy">   -190.07250282 </i>
    <i name="e_wo_entrp">   -189.82094373 </i>
    <i name="e_0_energy">   -189.94672328 </i>
   </energy>
  </scstep>
  <scstep>
   <time name="dav">   31.86   31.94</time>
   <time name="total">   32.40   32.48</time>
   <energy>
    <i name="e_fr_energy">   -189.85671025 </i>
    <i name="e_wo_entrp">   -189.62926192 </i>
    <i name="e_0_energy">   -189.74298609 </i>
   </energy>
  </scstep>
  <scstep>
   <time name="dav">   29.93   30.00</time>
   <time name="total">   30.46   30.54</time>
   <energy>
    <i name="e_fr_energy">   -189.80865862 </i>
    <i name="e_wo_entrp">   -189.56646188 </i>
    <i name="e_0_energy">   -189.68756025 </i>
   </energy>
  </scstep>
  <scstep>
   <time name="dav">   30.56   30.63</time>
   <time name="total">   31.09   31.17</time>
   <energy>
    <i name="e_fr_energy">   -189.75583040 </i>
    <i name="e_wo_entrp">   -189.52175432 </i>
    <i name="e_0_energy">   -189.63879236 </i>
   </energy>
  </scstep>
  <scstep>
   <time name="dav">   29.41   29.48</time>
   <time name="total">   29.94   30.02</time>
   <energy>
    <i name="e_fr_energy">   -189.75029229 </i>
    <i name="e_wo_entrp">   -189.51383746 </i>
    <i name="e_0_energy">   -189.63206488 </i>
   </energy>
  </scstep>
  <scstep>
   <time name="dav">   28.93   29.00</time>
   <time name="total">   29.46   29.54</time>
   <energy>
    <i name="e_fr_energy">   -189.75120341 </i>
    <i name="e_wo_entrp">   -189.51559585 </i>
    <i name="e_0_energy">   -189.63339963 </i>
   </energy>
  </scstep>
  <scstep>
   <time name="dav">   28.77   28.84</time>
   <time name="total">   29.31   29.39</time>
   <energy>
    <i name="e_fr_energy">   -189.74989228 </i>
    <i name="e_wo_entrp">   -189.51388006 </i>
    <i name="e_0_energy">   -189.63188617 </i>
   </energy>
  </scstep>
  <scstep>
   <time name="dav">   25.99   26.05</time>
   <time name="total">   26.52   26.59</time>
   <energy>
    <i name="e_fr_energy">   -189.75028409 </i>
    <i name="e_wo_entrp">   -189.51430239 </i>
    <i name="e_0_energy">   -189.63229324 </i>
   </energy>
  </scstep>
  <scstep>
   <time name="dav">   26.61   26.67</time>
   <time name="total">   27.14   27.21</time>
   <energy>
    <i name="e_fr_energy">   -189.75000816 </i>
    <i name="e_wo_entrp">   -189.51384883 </i>
    <i name="e_0_energy">   -189.63192850 </i>
   </energy>
  </scstep>
  <scstep>
   <time name="dav">   19.01   19.06</time>
   <time name="total">   19.05   19.10</time>
   <energy>
    <i name="alphaZ">     82.31564607 </i>
    <i name="ewald">  41287.57705383 </i>
    <i name="hartreedc"> -47258.87117048 </i>
    <i name="XCdc">   -235.26752453 </i>
    <i name="pawpsdc">   4038.30436851 </i>
    <i name="pawaedc">  -3453.99811892 </i>
    <i name="eentropy">     -0.23615624 </i>
    <i name="bandstr">  -1411.01667790 </i>
    <i name="atom">   6761.44252427 </i>
    <i name="e_fr_energy">   -189.75005540 </i>
    <i name="e_wo_entrp">   -189.51389916 </i>
    <i name="e_0_energy">   -189.63197728 </i>
   </energy>
  </scstep>
  <structure>
   <crystal>
    <varray name="basis" >
     <v>       8.67063941       5.00199542       0.00000000 </v>
     <v>      -8.66822570       4.99784263       0.00000000 </v>
     <v>       0.00000000       0.00000000      30.00000000 </v>
    </varray>
    <i name="volume">   2600.78749499 </i>
    <varray name="rec_basis" >
     <v>       0.05764995       0.09998770       0.00000000 </v>
     <v>      -0.05769786       0.10001555       0.00000000 </v>
     <v>       0.00000000       0.00000000       0.03333333 </v>
    </varray>
   </crystal>
   <varray name="positions" >
    <v>       0.00106620      -0.00094223       0.00000705 </v>
    <v>       0.00088981       0.66716129      -0.00000518 </v>
    <v>       0.66627651       0.66554506      -0.00007982 </v>
    <v>       0.33542390      -0.00007229       0.00018894 </v>
    <v>       0.66482145       0.33135562       0.00002837 </v>
    <v>       0.33321642       0.66857670      -0.00005364 </v>
    <v>       0.99989686       0.33548461      -0.00011410 </v>
    <v>       0.33549092       0.33334212      -0.00019791 </v>
    <v>       0.66269503      -0.00031905       0.00018545 </v>
    <v>       0.10940559       0.21874286       0.95199836 </v>
    <v>       0.21816788       0.10984023       0.04801136 </v>
    <v>       0.10800017       0.55665682       0.95188246 </v>
    <v>       0.22157372       0.44329621       0.04907586 </v>
    <v>       0.10643807       0.88667385       0.95319194 </v>
    <v>       0.21751243       0.77551161       0.04809144 </v>
    <v>       0.44363246       0.22276632       0.95069417 </v>
    <v>       0.55609935       0.11040064       0.04955258 </v>
    <v>       0.44818028       0.55643343       0.95194971 </v>
    <v>       0.55664199       0.44832485       0.04812447 </v>
    <v>       0.44547267       0.88919123       0.95057323 </v>
    <v>       0.55866392       0.77658375       0.04795783 </v>
    <v>       0.77848279       0.22165646       0.95078178 </v>
    <v>       0.89060263       0.10905271       0.04780856 </v>
    <v>       0.77972187       0.56000336       0.95325287 </v>
    <v>       0.89153274       0.44831795       0.04805939 </v>
    <v>       0.77936814       0.88708093       0.95326204 </v>
    <v>       0.88894065       0.77754942       0.04577268 </v>
   </varray>
  </structure>
  <varray name="forces" >
   <v>       0.13302989       0.11431075      -0.01999424 </v>
   <v>       0.19831909       0.07113666      -0.01691009 </v>
   <v>       0.02771081      -0.19993949      -0.10023027 </v>
   <v>       0.45083606       0.46731402       0.01326081 </v>
   <v>       0.16580857      -0.55286113      -0.05076500 </v>
   <v>      -0.23658079       0.10609155       0.06583050 </v>
   <v>      -0.18798734       0.18897216       0.09004965 </v>
   <v>       0.20460724       0.10945799      -0.00089546 </v>
   <v>      -0.68606307      -0.28887253       0.01944924 </v>
   <v>       0.01500804      -0.04668525      -0.37000704 </v>
   <v>      -0.04668692      -0.06726110       0.44351550 </v>
   <v>      -0.12629142      -0.01555095      -0.62753226 </v>
   <v>       0.05215168      -0.03698292       0.37632786 </v>
   <v>      -0.01647383      -0.09785694      -0.35239290 </v>
   <v>      -0.09771514      -0.12924154       0.57079296 </v>
   <v>      -0.03959817      -0.03131265      -0.69473633 </v>
   <v>       0.04638573      -0.01027939       0.90824833 </v>
   <v>       0.06383284       0.08178232      -0.47435030 </v>
   <v>      -0.05807924       0.09351525       0.54852381 </v>
   <v>       0.00633637       0.02859672      -0.78841783 </v>
   <v>       0.09488349       0.05135778       0.47555870 </v>
   <v>       0.06089431      -0.01407404      -0.54899341 </v>
   <v>       0.03060585      -0.02117022       0.23932728 </v>
   <v>      -0.03819754       0.10858940      -0.28055442 </v>
   <v>      -0.04749206       0.10666267       0.45405667 </v>
   <v>       0.03093200      -0.00547845      -0.16071036 </v>
   <v>      -0.00017646      -0.01022069       0.28154860 </v>
  </varray>
  <varray name="stress" >
   <v>     -10.22734966      -0.01731786       0.01593174 </v>
   <v>      -0.01731792      -9.92494152      -0.03000675 </v>
   <v>       0.01593163      -0.03000695       6.47657013 </v>
  </varray>
  <energy>
   <i name="e_fr_energy">   -189.75005540 </i>
   <i name="e_wo_entrp">   -189.63197728 </i>
   <i name="e_0_energy">     -0.23615624 </i>
  </energy>
  <time name="totalsc">  382.43  383.45</time>
 </calculation>
 <calculation>
  <scstep>
   <time name="dav">   21.67   21.72</time>
   <time name="total">   22.19   22.24</time>
   <energy>
    <i name="alphaZ">     85.84272017 </i>
    <i name="ewald">  42846.18908893 </i>
    <i name="hartreedc"> -48862.41153954 </i>
    <i name="XCdc">   -232.92656540 </i>
    <i name="pawpsdc">   4038.31911439 </i>
    <i name="pawaedc">  -3454.01015586 </i>
    <i name="eentropy">     -0.19691113 </i>
    <i name="bandstr">  -1373.60643840 </i>
    <i name="atom">   6761.44252427 </i>
    <i name="e_fr_energy">   -191.35816257 </i>
    <i name="e_wo_entrp">   -191.16125144 </i>
    <i name="e_0_energy">   -191.25970701 </i>
   </energy>
  </scstep>
  <scstep>
   <time name="dav">   31.56   31.64</time>
   <time name="total">   32.07   32.16</time>
   <energy>
    <i name="e_fr_energy">   -191.17551102 </i>
    <i name="e_wo_entrp">   -190.98085317 </i>
    <i name="e_0_energy">   -191.07818210 </i>
   </energy>
  </scstep>
  <scstep>
   <time name="dav">   29.88   29.95</time>
   <time name="total">   30.39   30.47</time>
   <energy>
    <i name="e_fr_energy">   -191.32489607 </i>
    <i name="e_wo_entrp">   -191.10730710 </i>
    <i name="e_0_energy">   -191.21610159 </i>
   </energy>
  </scstep>
  <scstep>
   <time name="dav">   29.88   29.95</time>
   <time name="total">   30.40   30.48</time>
   <energy>
    <i name="e_fr_energy">   -190.95234606 </i>
    <i name="e_wo_entrp">   -190.74165504 </i>
    <i name="e_0_energy">   -190.84700055 </i>
   </energy>
  </scstep>
  <scstep>
   <time name="dav">   27.84   27.91</time>
   <time name="total">   28.36   28.43</time>
   <energy>
    <i name="e_fr_energy">   -190.93246611 </i>
    <i name="e_wo_entrp">   -190.74447020 </i>
    <i name="e_0_energy">   -190.83846816 </i>
   </energy>
  </scstep>
  <scstep>
   <time name="dav">   28.29   28.36</time>
   <time name="total">   28.81   28.88</time>
   <energy>
    <i name="e_fr_energy">   -190.75754182 </i>
    <i name="e_wo_entrp">   -190.55580982 </i>
    <i name="e_0_energy">   -190.65667582 </i>
   </energy>
  </scstep>
  <scstep>
   <time name="dav">   30.67   30.75</time>
   <time name="total">   31.19   31.28</time>
   <energy>
    <i name="e_fr_energy">   -190.75560890 </i>
    <i name="e_wo_entrp">   -190.55327103 </i>
    <i name="e_0_energy">   -190.65443997 </i>
   </energy>
  </scstep>
  <scstep>
   <time name="dav">   29.61   29.68</time>
   <time name="total">   30.13   30.21</time>
   <energy>
    <i name="e_fr_energy">   -190.75418613 </i>
    <i name="e_wo_entrp">   -190.55191489 </i>
    <i name="e_0_energy">   -190.65305051 </i>
   </energy>
  </scstep>
  <scstep>
   <time name="dav">   27.59   27.65</time>
   <time name="total">   28.10   28.18</time>
   <energy>
    <i name="e_fr_energy">   -190.74917617 </i>
    <i name="e_wo_entrp">   -190.54712209 </i>
    <i name="e_0_energy">   -190.64814913 </i>
   </energy>
  </scstep>
  <scstep>
   <time name="dav">   26.65   26.72</time>
   <time name="total">   27.17   27.24</time>
   <energy>
    <i name="e_fr_energy">   -190.74953589 </i>
    <i name="e_wo_entrp">   -190.54747351 </i>
    <i name="e_0_energy">   -190.64850470 </i>
   </energy>
  </scstep>
  <scstep>
   <time name="dav">   27.20   27.26</time>
   <time name="total">   27.71   27.79</time>
   <energy>
    <i name="e_fr_energy">   -190.74932431 </i>
    <i name="e_wo_entrp">   -190.54716265 </i>
    <i name="e_0_energy">   -190.64824348 </i>
   </energy>
  </scstep>
  <scstep>
   <time name="dav">   18.47   18.51</time>
   <time name="total">   18.50   18.56</time>
   <energy>
    <i name="alphaZ">     85.84272017 </i>
    <i name="ewald">  42846.18908893 </i>
    <i name="hartreedc"> -48833.93255361 </i>
    <i name="XCdc">   -234.27518837 </i>
    <i name="pawpsdc">   4064.41676767 </i>
    <i name="pawaedc">  -3480.30638519 </i>
    <i name="eentropy">     -0.20228171 </i>
    <i name="bandstr">  -1399.92403972 </i>
    <i name="atom">   6761.44252427 </i>
    <i name="e_fr_energy">   -190.74934756 </i>
    <i name="e_wo_entrp">   -190.54706585 </i>
    <i name="e_0_energy">   -190.64820670 </i>
   </energy>
  </scstep>
  <structure>
   <crystal>
    <varray name="basis" >
     <v>       8.48628372       4.89971297       0.00000000 </v>
     <v>      -8.48475240       4.89708569       0.00000000 </v>
     <v>       0.00000000       0.00000000      30.00000000 </v>
    </varray>
    <i name="volume">   2493.92729535 </i>
    <varray name="rec_basis" >
     <v>       0.05890812       0.10206495       0.00000000 </v>
     <v>      -0.05893973       0.10208337       0.00000000 </v>
     <v>       0.00000000       0.00000000       0.03333333 </v>
    </varray>
   </crystal>
   <varray name="positions" >
    <v>       0.00232446      -0.00050372      -0.00003933 </v>
    <v>       0.00212818       0.66675071      -0.00004498 </v>
    <v>       0.66495207       0.66411111      -0.00028735 </v>
    <v>       0.34028830       0.00140361       0.00019482 </v>
    <v>       0.66181055       0.32702005      -0.00007692 </v>
    <v>       0.33299617       0.67004472       0.00008499 </v>
    <v>       1.00046783       0.33731072       0.00008886 </v>
    <v>       0.33681554       0.33327257      -0.00016980 </v>
    <v>       0.65836539       0.00049961       0.00019749 </v>
    <v>       0.10896359       0.21798536       0.95080083 </v>
    <v>       0.21729111       0.10925641       0.04934938 </v>
    <v>       0.10747671       0.55741111       0.95013803 </v>
    <v>       0.22167359       0.44308989       0.05031401 </v>
    <v>       0.10562656       0.88603554       0.95208785 </v>
    <v>       0.21611904       0.77497970       0.04969769 </v>
    <v>       0.44339258       0.22253980       0.94877108 </v>
    <v>       0.55607028       0.11030786       0.05195206 </v>
    <v>       0.44924437       0.55708045       0.95054127 </v>
    <v>       0.55738154       0.44944970       0.04969086 </v>
    <v>       0.44543035       0.88923144       0.94845338 </v>
    <v>       0.55933089       0.77622144       0.04937079 </v>
    <v>       0.77849185       0.22141161       0.94917362 </v>
    <v>       0.89074651       0.10857977       0.04871403 </v>
    <v>       0.78037248       0.56100065       0.95230153 </v>
    <v>       0.89196130       0.44950912       0.04942444 </v>
    <v>       0.77963080       0.88675193       0.95255760 </v>
    <v>       0.88886243       0.77746328       0.04671367 </v>
   </varray>
  </structure>
  <varray name="forces" >
   <v>       0.11466993       0.13568459      -0.03106943 </v>
   <v>       0.23056887       0.07193216      -0.02317872 </v>
   <v>       0.01903294      -0.19055187      -0.06553749 </v>
   <v>       0.42525463       0.52780820      -0.02363490 </v>
   <v>       0.17383021      -0.62875333      -0.01489804 </v>
   <v>      -0.22630624       0.06216342       0.04381390 </v>
   <v>      -0.13231634       0.23019879       0.06742131 </v>
   <v>       0.19418648       0.06877713       0.04468459 </v>
   <v>      -0.67944648      -0.25734966      -0.02851091 </v>
   <v>       0.00612046       0.00783318      -0.26019797 </v>
   <v>       0.06480998      -0.00371495       0.29056489 </v>
   <v>      -0.07219092       0.03042595      -0.45457216 </v>
   <v>       0.02434771       0.04524163       0.23313434 </v>
   <v>       0.06931395       0.03338287      -0.24502128 </v>
   <v>      -0.08294471       0.00521869       0.40672745 </v>
   <v>       0.02958228      -0.04830866      -0.52046782 </v>
   <v>      -0.02871634      -0.00946030       0.80032993 </v>
   <v>      -0.00517774       0.02442917      -0.32838665 </v>
   <v>       0.03212148       0.04325735       0.35245033 </v>
   <v>      -0.01392900      -0.02712065      -0.58480451 </v>
   <v>      -0.00648678       0.03288453       0.30474946 </v>
   <v>       0.01936319      -0.03270830      -0.34328572 </v>
   <v>      -0.04360570      -0.06106664       0.09815453 </v>
   <v>       0.04944407      -0.03126286      -0.18403638 </v>
   <v>      -0.10544474       0.00292165       0.27874831 </v>
   <v>      -0.07205025      -0.01739905      -0.07599949 </v>
   <v>       0.01596909      -0.01446304       0.26282246 </v>
  </varray>
  <varray name="stress" >
   <v>      -5.66987300       0.09675817      -0.13914688 </v>
   <v>       0.09675816      -5.73260833       0.10272450 </v>
   <v>      -0.13914689       0.10272454       4.62611482 </v>
  </varray>
  <energy>
   <i name="e_fr_energy">   -190.74934756 </i>
   <i name="e_wo_entrp">   -190.64820670 </i>
   <i name="e_0_energy">     -0.20228171 </i>
  </energy>
  <time name="totalsc">  377.10  378.10</time>
 </calculation>
 <calculation>
  <scstep>
   <time name="dav">   21.68   21.74</time>
   <time name="total">   22.19   22.25</time>
   <energy>
    <i name="alphaZ">     90.09070907 </i>
    <i name="ewald">  44630.59815071 </i>
    <i name="hartreedc"> -50672.40294939 </i>
    <i name="XCdc">   -231.89420789 </i>
    <i name="pawpsdc">   4064.41340847 </i>
    <i name="pawaedc">  -3480.29908116 </i>
    <i name="eentropy">     -0.18679759 </i>
    <i name="bandstr">  -1353.83628694 </i>
    <i name="atom">   6761.44252427 </i>
    <i name="e_fr_energy">   -192.07453045 </i>
    <i name="e_wo_entrp">   -191.88773286 </i>
    <i name="e_0_energy">   -191.98113166 </i>
   </energy>
  </scstep>
  <scstep>
   <time name="dav">   28.71   28.78</time>
   <time name="total">   29.21   29.29</time>
   <energy>
    <i name="e_fr_energy">   -191.85898953 </i>
    <i name="e_wo_entrp">   -191.65874327 </i>
    <i name="e_0_energy">   -191.75886640 </i>
   </energy>
  </scstep>
  <scstep>
   <time name="dav">   29.47   29.54</time>
   <time name="total">   29.98   30.06</time>
   <energy>
    <i name="e_fr_energy">   -192.34354860 </i>
    <i name="e_wo_entrp">   -192.15805823 </i>
    <i name="e_0_energy">   -192.25080341 </i>
   </energy>
  </scstep>
  <scstep>
   <time name="dav">   29.08   29.15</time>
   <time name="total">   29.59   29.66</time>
   <energy>
    <i name="e_fr_energy">   -191.63890803 </i>
    <i name="e_wo_entrp">   -191.44491641 </i>
    <i name="e_0_energy">   -191.54191222 </i>
   </energy>
  </scstep>
  <scstep>
   <time name="dav">   29.63   29.71</time>
   <time name="total">   30.14   30.22</time>
   <energy>
    <i name="e_fr_energy">   -191.59086206 </i>
    <i name="e_wo_entrp">   -191.38853685 </i>
    <i name="e_0_energy">   -191.48969946 </i>
   </energy>
  </scstep>
  <scstep>
   <time name="dav">   30.60   30.67</time>
   <time name="total">   31.10   31.18</time>
   <energy>
    <i name="e_fr_energy">   -191.42366857 </i>
    <i name="e_wo_entrp">   -191.23374770 </i>
    <i name="e_0_energy">   -191.32870814 </i>
   </energy>
  </scstep>
  <scstep>
   <time name="dav">   30.43   30.50</time>
   <time name="total">   30.93   31.02</time>
   <energy>
    <i name="e_fr_energy">   -191.40995523 </i>
    <i name="e_wo_entrp">   -191.20702300 </i>
    <i name="e_0_energy">   -191.30848912 </i>
   </energy>
  </scstep>
  <scstep>
   <time name="dav">   28.39   28.46</time>
   <time name="total">   28.90   28.98</time>
   <energy>
    <i name="e_fr_energy">   -191.39778490 </i>
    <i name="e_wo_entrp">   -191.20365208 </i>
    <i name="e_0_energy">   -191.30071849 </i>
   </energy>
  </scstep>
  <scstep>
   <time name="dav">   28.91   28.98</time>
   <time name="total">   29.42   29.50</time>
   <energy>
    <i name="e_fr_energy">   -191.39212383 </i>
    <i name="e_wo_entrp">   -191.19662003 </i>
    <i name="e_0_energy">   -191.29437193 </i>
   </energy>
  </scstep>
  <scstep>
   <time name="dav">   29.77   29.85</time>
   <time name="total">   30.28   30.36</time>
   <energy>
    <i name="e_fr_energy">   -191.39211106 </i>
    <i name="e_wo_entrp">   -191.19585049 </i>
    <i name="e_0_energy">   -191.29398077 </i>
   </energy>
  </scstep>
  <scstep>
   <time name="dav">   27.34   27.41</time>
   <time name="total">   27.37   27.45</time>
   <energy>
    <i name="alphaZ">     90.09070907 </i>
    <i name="ewald">  44630.59815071 </i>
    <i name="hartreedc"> -50639.31039484 </i>
    <i name="XCdc">   -233.38359811 </i>
    <i name="pawpsdc">   4085.28374091 </i>
    <i name="pawaedc">  -3501.26535453 </i>
    <i name="eentropy">     -0.19634568 </i>
    <i name="bandstr">  -1384.65160668 </i>
    <i name="atom">   6761.44252427 </i>
    <i name="e_fr_energy">   -191.39217487 </i>
    <i name="e_wo_entrp">   -191.19582919 </i>
    <i name="e_0_energy">   -191.29400203 </i>
   </energy>
  </scstep>
  <structure>
   <crystal>
    <varray name="basis" >
     <v>       8.28784106       4.78647863       0.00000000 </v>
     <v>      -8.28114042       4.77489733       0.00000000 </v>
     <v>       0.00000000       0.00000000      30.00000000 </v>
    </varray>
    <i name="volume">   2376.33275569 </i>
    <varray name="rec_basis" >
     <v>       0.06028067       0.10454521       0.00000000 </v>
     <v>      -0.06042687       0.10462980       0.00000000 </v>
     <v>       0.00000000       0.00000000       0.03333333 </v>
    </varray>
   </crystal>
   <varray name="positions" >
    <v>       0.00479562       0.00050375      -0.00016055 </v>
    <v>       0.00463948       0.66589088      -0.00013762 </v>
    <v>       0.66260139       0.66158167      -0.00056116 </v>
    <v>       0.34982721       0.00486514       0.00009749 </v>
    <v>       0.65542690       0.31810464      -0.00015373 </v>
    <v>       0.33220284       0.67237869       0.00027003 </v>
    <v>       1.00226830       0.34093061       0.00038215 </v>
    <v>       0.33894708       0.33279095       0.00001461 </v>
    <v>       0.65047644       0.00223791       0.00007940 </v>
    <v>       0.10879469       0.21748563       0.94924920 </v>
    <v>       0.21717220       0.10839695       0.05102876 </v>
    <v>       0.10725203       0.55869070       0.94777953 </v>
    <v>       0.22243747       0.44354410       0.05180762 </v>
    <v>       0.10606304       0.88573127       0.95066000 </v>
    <v>       0.21512292       0.77533142       0.05184175 </v>
    <v>       0.44309170       0.22165428       0.94611062 </v>
    <v>       0.55567938       0.11047721       0.05570975 </v>
    <v>       0.45001329       0.55784274       0.94871042 </v>
    <v>       0.55852302       0.45027475       0.05164629 </v>
    <v>       0.44484542       0.88894425       0.94552347 </v>
    <v>       0.55980607       0.77621802       0.05112430 </v>
    <v>       0.77816558       0.22094732       0.94720379 </v>
    <v>       0.89002917       0.10788983       0.04962491 </v>
    <v>       0.78060283       0.56078653       0.95112192 </v>
    <v>       0.89141060       0.45077628       0.05107492 </v>
    <v>       0.77924340       0.88676314       0.95180470 </v>
    <v>       0.88877637       0.77717576       0.04814734 </v>
   </varray>
  </structure>
  <varray name="forces" >
   <v>       0.15221765       0.07330143      -0.00896283 </v>
   <v>       0.15260325       0.11078763       0.02384496 </v>
   <v>       0.02913063      -0.08170848      -0.01766029 </v>
   <v>       0.01419140       0.12340112      -0.01576200 </v>
   <v>      -0.00407362      -0.27081447       0.07144010 </v>
   <v>      -0.13660737      -0.08143964      -0.01218467 </v>
   <v>      -0.01797817       0.28164611       0.02132693 </v>
   <v>       0.14815472      -0.02048869      -0.02278099 </v>
   <v>      -0.20689274      -0.09979930       0.04505044 </v>
   <v>      -0.03826937       0.09856866      -0.00120231 </v>
   <v>       0.17591007       0.07501221       0.02165941 </v>
   <v>       0.01177980       0.04094903      -0.14655209 </v>
   <v>       0.01844043       0.11335850       0.03287860 </v>
   <v>       0.14849681       0.18236094      -0.00699894 </v>
   <v>      -0.06071764       0.17355738       0.05939891 </v>
   <v>       0.05012885      -0.07059133      -0.17102212 </v>
   <v>      -0.02504780      -0.00043922       0.35932947 </v>
   <v>      -0.05498544      -0.07818271      -0.00814921 </v>
   <v>       0.11060372      -0.03546226       0.05662783 </v>
   <v>      -0.02150541      -0.07204065      -0.23934009 </v>
   <v>      -0.13179583       0.04327430      -0.01307796 </v>
   <v>      -0.00975223      -0.04351007      -0.01542439 </v>
   <v>      -0.15725480      -0.09955145      -0.18785846 </v>
   <v>       0.15674283      -0.21363834       0.07555907 </v>
   <v>      -0.08950937      -0.11946178      -0.05371757 </v>
   <v>      -0.24836694      -0.01917611       0.14165916 </v>
   <v>       0.03435659      -0.00991279       0.01191905 </v>
  </varray>
  <varray name="stress" >
   <v>      -0.11203378       0.19054945      -0.13164850 </v>
   <v>       0.19054967       0.02648858       0.34441197 </v>
   <v>      -0.13164851       0.34441207      -0.36916454 </v>
  </varray>
  <energy>
   <i name="e_fr_energy">   -191.39217487 </i>
   <i name="e_wo_entrp">   -191.29400203 </i>
   <i name="e_0_energy">     -0.19634568 </i>
  </energy>
  <time name="totalsc">  360.76  361.72</time>
 </calculation>
 <calculation>
  <scstep>
   <time name="dav">   21.64   21.69</time>
   <time name="total">   22.15   22.20</time>
   <energy>
    <i name="alphaZ">     90.14233275 </i>
    <i name="ewald">  44630.66952329 </i>
    <i name="hartreedc"> -50640.98174466 </i>
    <i name="XCdc">   -233.44254496 </i>
    <i name="pawpsdc">   4085.62602394 </i>
    <i name="pawaedc">  -3501.60494911 </i>
    <i name="eentropy">     -0.19932526 </i>
    <i name="bandstr">  -1383.08321185 </i>
    <i name="atom">   6761.44252427 </i>
    <i name="e_fr_energy">   -191.43137160 </i>
    <i name="e_wo_entrp">   -191.23204634 </i>
    <i name="e_0_energy">   -191.33170897 </i>
   </energy>
  </scstep>
  <scstep>
   <time name="dav">   31.34   31.42</time>
   <time name="total">   31.85   31.93</time>
   <energy>
    <i name="e_fr_energy">   -191.47185549 </i>
    <i name="e_wo_entrp">   -191.26320607 </i>
    <i name="e_0_energy">   -191.36753078 </i>
   </energy>
  </scstep>
  <scstep>
   <time name="dav">   30.40   30.47</time>
   <time name="total">   30.90   30.99</time>
   <energy>
    <i name="e_fr_energy">   -191.44308116 </i>
    <i name="e_wo_entrp">   -191.24388190 </i>
    <i name="e_0_energy">   -191.34348153 </i>
   </energy>
  </scstep>
  <scstep>
   <time name="dav">   27.51   27.58</time>
   <time name="total">   28.03   28.32</time>
   <energy>
    <i name="e_fr_energy">   -191.44300257 </i>
    <i name="e_wo_entrp">   -191.24261657 </i>
    <i name="e_0_energy">   -191.34280957 </i>
   </energy>
  </scstep>
  <scstep>
   <time name="dav">   27.54   27.60</time>
   <time name="total">   28.05   28.12</time>
   <energy>
    <i name="e_fr_energy">   -191.44107123 </i>
    <i name="e_wo_entrp">   -191.24009863 </i>
    <i name="e_0_energy">   -191.34058493 </i>
   </energy>
  </scstep>
  <scstep>
   <time name="dav">   28.42   28.48</time>
   <time name="total">   28.93   29.01</time>
   <energy>
    <i name="e_fr_energy">   -191.44102594 </i>
    <i name="e_wo_entrp">   -191.23991023 </i>
    <i name="e_0_energy">   -191.34046808 </i>
   </energy>
  </scstep>
  <scstep>
   <time name="dav">   26.26   26.32</time>
   <time name="total">   26.76   26.83</time>
   <energy>
    <i name="e_fr_energy">   -191.44139861 </i>
    <i name="e_wo_entrp">   -191.24154267 </i>
    <i name="e_0_energy">   -191.34147064 </i>
   </energy>
  </scstep>
  <scstep>
   <time name="dav">   23.30   23.35</time>
   <time name="total">   23.80   23.87</time>
   <energy>
    <i name="e_fr_energy">   -191.44069747 </i>
    <i name="e_wo_entrp">   -191.23989031 </i>
    <i name="e_0_energy">   -191.34029389 </i>
   </energy>
  </scstep>
  <scstep>
   <time name="dav">   16.73   16.77</time>
   <time name="total">   16.76   16.81</time>
   <energy>
    <i name="alphaZ">     90.14233275 </i>
    <i name="ewald">  44630.66952329 </i>
    <i name="hartreedc"> -50641.64173814 </i>
    <i name="XCdc">   -233.44296407 </i>
    <i name="pawpsdc">   4082.39556070 </i>
    <i name="pawaedc">  -3498.32499637 </i>
    <i name="eentropy">     -0.20076139 </i>
    <i name="bandstr">  -1382.48022060 </i>
    <i name="atom">   6761.44252427 </i>
    <i name="e_fr_energy">   -191.44073956 </i>
    <i name="e_wo_entrp">   -191.23997817 </i>
    <i name="e_0_energy">   -191.34035887 </i>
   </energy>
  </scstep>
  <structure>
   <crystal>
    <varray name="basis" >
     <v>       8.28642531       4.79031611       0.00000000 </v>
     <v>      -8.27474483       4.77010092       0.00000000 </v>
     <v>       0.00000000       0.00000000      30.00000000 </v>
    </varray>
    <i name="volume">   2374.97185183 </i>
    <varray name="rec_basis" >
     <v>       0.06025462       0.10452433       0.00000000 </v>
     <v>      -0.06050997       0.10467188       0.00000000 </v>
     <v>       0.00000000       0.00000000       0.03333333 </v>
    </varray>
   </crystal>
   <varray name="positions" >
    <v>       0.00565560       0.00044231      -0.00017674 </v>
    <v>       0.00569411       0.66599600      -0.00009963 </v>
    <v>       0.66223670       0.66104201      -0.00059365 </v>
    <v>       0.35062385       0.00550182       0.00007038 </v>
    <v>       0.65394190       0.31661063      -0.00003756 </v>
    <v>       0.33136853       0.67239437       0.00025241 </v>
    <v>       1.00368666       0.34247919       0.00042101 </v>
    <v>       0.33930721       0.33223893      -0.00002045 </v>
    <v>       0.64925090       0.00236168       0.00015185 </v>
    <v>       0.10918388       0.21809657       0.94922366 </v>
    <v>       0.21807467       0.10824633       0.05108952 </v>
    <v>       0.10749430       0.55888587       0.94750512 </v>
    <v>       0.22308564       0.44407957       0.05188486 </v>
    <v>       0.10744430       0.88622336       0.95062701 </v>
    <v>       0.21581988       0.77640825       0.05197024 </v>
    <v>       0.44287402       0.22112966       0.94579196 </v>
    <v>       0.55559730       0.11055228       0.05635098 </v>
    <v>       0.44946134       0.55761656       0.94866995 </v>
    <v>       0.55868619       0.44977753       0.05176812 </v>
    <v>       0.44440212       0.88863304       0.94508921 </v>
    <v>       0.55964452       0.77682936       0.05112910 </v>
    <v>       0.77790804       0.22074699       0.94714898 </v>
    <v>       0.88904373       0.10783417       0.04933220 </v>
    <v>       0.77997330       0.55922098       0.95122757 </v>
    <v>       0.89052432       0.45044692       0.05101174 </v>
    <v>       0.77840536       0.88740118       0.95202412 </v>
    <v>       0.88882608       0.77701890       0.04818793 </v>
   </varray>
  </structure>
  <varray name="forces" >
   <v>       0.18686595       0.04602386      -0.00373694 </v>
   <v>       0.13991301       0.13110601       0.02504142 </v>
   <v>       0.04061893      -0.06791484      -0.04107001 </v>
   <v>       0.05083005       0.14567034      -0.00921253 </v>
   <v>      -0.04387501      -0.27792059       0.01842633 </v>
   <v>      -0.15573522      -0.08292193      -0.03601975 </v>
   <v>      -0.01917727       0.31738726       0.01800918 </v>
   <v>       0.17590850      -0.01092498      -0.03268182 </v>
   <v>      -0.24986524      -0.17233729      -0.00694858 </v>
   <v>      -0.02566473       0.07066049       0.02083703 </v>
   <v>       0.08916912       0.04650104       0.02816477 </v>
   <v>      -0.00356742       0.03234364      -0.12439840 </v>
   <v>       0.02921049       0.07907023       0.01526695 </v>
   <v>       0.08744977       0.10051387      -0.01850337 </v>
   <v>      -0.04222187       0.09624980       0.04136473 </v>
   <v>       0.02337521      -0.03528305      -0.10670951 </v>
   <v>      -0.02077446      -0.02737987       0.20292418 </v>
   <v>      -0.03273760      -0.05747997       0.03714450 </v>
   <v>       0.05138439      -0.03485411       0.04058337 </v>
   <v>      -0.01175815      -0.03737769      -0.09057908 </v>
   <v>      -0.08355028      -0.00383452      -0.02258660 </v>
   <v>      -0.00851214      -0.00896051       0.08114857 </v>
   <v>      -0.10473655      -0.03946492      -0.19576152 </v>
   <v>       0.10842733      -0.13448377       0.11515698 </v>
   <v>      -0.05575271      -0.06659802      -0.07571068 </v>
   <v>      -0.14889337      -0.00559140       0.15298692 </v>
   <v>       0.02366929      -0.00219906      -0.03313613 </v>
  </varray>
  <varray name="stress" >
   <v>      -0.11213515      -0.02334664      -0.10809681 </v>
   <v>      -0.02334643      -0.05735924       0.12822430 </v>
   <v>      -0.10809685       0.12822428      -1.24298455 </v>
  </varray>
  <energy>
   <i name="e_fr_energy">   -191.44073956 </i>
   <i name="e_wo_entrp">   -191.34035887 </i>
   <i name="e_0_energy">     -0.20076139 </i>
  </energy>
  <time name="totalsc">  279.00  279.96</time>
 </calculation>
 <calculation>
  <scstep>
   <time name="dav">   21.65   21.70</time>
   <time name="total">   22.16   22.21</time>
   <energy>
    <i name="alphaZ">     90.24103770 </i>
    <i name="ewald">  44674.50426516 </i>
    <i name="hartreedc"> -50686.57303863 </i>
    <i name="XCdc">   -233.38116845 </i>
    <i name="pawpsdc">   4082.38056554 </i>
    <i name="pawaedc">  -3498.30972994 </i>
    <i name="eentropy">     -0.20353110 </i>
    <i name="bandstr">  -1381.58498208 </i>
    <i name="atom">   6761.44252427 </i>
    <i name="e_fr_energy">   -191.48405753 </i>
    <i name="e_wo_entrp">   -191.28052644 </i>
    <i name="e_0_energy">   -191.38229198 </i>
   </energy>
  </scstep>
  <scstep>
   <time name="dav">   32.49   32.57</time>
   <time name="total">   33.00   33.08</time>
   <energy>
    <i name="e_fr_energy">   -191.53635895 </i>
    <i name="e_wo_entrp">   -191.31894545 </i>
    <i name="e_0_energy">   -191.42765220 </i>
   </energy>
  </scstep>
  <scstep>
   <time name="dav">   30.47   30.54</time>
   <time name="total">   30.97   31.05</time>
   <energy>
    <i name="e_fr_energy">   -191.49416978 </i>
    <i name="e_wo_entrp">   -191.29060319 </i>
    <i name="e_0_energy">   -191.39238648 </i>
   </energy>
  </scstep>
  <scstep>
   <time name="dav">   27.38   27.45</time>
   <time name="total">   27.88   27.96</time>
   <energy>
    <i name="e_fr_energy">   -191.49331018 </i>
    <i name="e_wo_entrp">   -191.28835860 </i>
    <i name="e_0_energy">   -191.39083439 </i>
   </energy>
  </scstep>
  <scstep>
   <time name="dav">   27.98   28.05</time>
   <time name="total">   28.49   28.57</time>
   <energy>
    <i name="e_fr_energy">   -191.49131286 </i>
    <i name="e_wo_entrp">   -191.28547766 </i>
    <i name="e_0_energy">   -191.38839526 </i>
   </energy>
  </scstep>
  <scstep>
   <time name="dav">   28.15   28.22</time>
   <time name="total">   28.65   28.73</time>
   <energy>
    <i name="e_fr_energy">   -191.49090228 </i>
    <i name="e_wo_entrp">   -191.28465463 </i>
    <i name="e_0_energy">   -191.38777845 </i>
   </energy>
  </scstep>
  <scstep>
   <time name="dav">   28.03   28.10</time>
   <time name="total">   28.53   28.61</time>
   <energy>
    <i name="e_fr_energy">   -191.49138569 </i>
    <i name="e_wo_entrp">   -191.28699278 </i>
    <i name="e_0_energy">   -191.38918924 </i>
   </energy>
  </scstep>
  <scstep>
   <time name="dav">   24.53   24.59</time>
   <time name="total">   25.03   25.10</time>
   <energy>
    <i name="e_fr_energy">   -191.49037996 </i>
    <i name="e_wo_entrp">   -191.28456861 </i>
    <i name="e_0_energy">   -191.38747429 </i>
   </energy>
  </scstep>
  <scstep>
   <time name="dav">   16.46   16.50</time>
   <time name="total">   16.50   16.54</time>
   <energy>
    <i name="alphaZ">     90.24103770 </i>
    <i name="ewald">  44674.50426516 </i>
    <i name="hartreedc"> -50686.52942593 </i>
    <i name="XCdc">   -233.38957338 </i>
    <i name="pawpsdc">   4084.79387394 </i>
    <i name="pawaedc">  -3500.75725853 </i>
    <i name="eentropy">     -0.20569555 </i>
    <i name="bandstr">  -1381.59015935 </i>
    <i name="atom">   6761.44252427 </i>
    <i name="e_fr_energy">   -191.49041166 </i>
    <i name="e_wo_entrp">   -191.28471612 </i>
    <i name="e_0_energy">   -191.38756389 </i>
   </energy>
  </scstep>
  <structure>
   <crystal>
    <varray name="basis" >
     <v>       8.28076726       4.78767735       0.00000000 </v>
     <v>      -8.26967260       4.76847279       0.00000000 </v>
     <v>       0.00000000       0.00000000      30.00000000 </v>
    </varray>
    <i name="volume">   2372.37412603 </i>
    <varray name="rec_basis" >
     <v>       0.06030001       0.10457464       0.00000000 </v>
     <v>      -0.06054286       0.10471494       0.00000000 </v>
     <v>       0.00000000       0.00000000       0.03333333 </v>
    </varray>
   </crystal>
   <varray name="positions" >
    <v>       0.00676912       0.00003713      -0.00018737 </v>
    <v>       0.00720876       0.66632524      -0.00004578 </v>
    <v>       0.66188120       0.66035942      -0.00068856 </v>
    <v>       0.35200234       0.00637219       0.00004790 </v>
    <v>       0.65172694       0.31469336       0.00000426 </v>
    <v>       0.33015613       0.67248306       0.00017703 </v>
    <v>       1.00584218       0.34482298       0.00046653 </v>
[...]
      <set comment="kpoint 31">
       <r>  -17.5168    1.0000 </r>
       <r>  -17.2737    1.0000 </r>
       <r>  -16.9604    1.0000 </r>
       <r>  -16.6408    1.0000 </r>
       <r>  -16.5443    1.0000 </r>
       <r>  -16.4643    1.0000 </r>
       <r>  -16.2937    1.0000 </r>
       <r>  -16.2172    1.0000 </r>
       <r>  -16.0932    1.0000 </r>
       <r>  -16.0116    1.0000 </r>
       <r>  -15.9267    1.0000 </r>
       <r>  -15.8542    1.0000 </r>
       <r>  -15.7877    1.0000 </r>
       <r>  -15.6745    1.0000 </r>
       <r>  -15.5957    1.0000 </r>
       <r>  -15.4803    1.0000 </r>
       <r>  -15.4155    1.0000 </r>
       <r>  -15.3044    1.0000 </r>
       <r>   -9.7347    1.0000 </r>
       <r>   -9.4632    1.0000 </r>
       <r>   -9.3443    1.0000 </r>
       <r>   -8.9311    1.0000 </r>
       <r>   -8.8497    1.0000 </r>
       <r>   -8.7525    1.0000 </r>
       <r>   -8.5913    1.0000 </r>
       <r>   -8.5522    1.0000 </r>
       <r>   -8.4479    1.0000 </r>
       <r>   -8.3464    1.0000 </r>
       <r>   -8.2596    1.0000 </r>
       <r>   -8.1927    1.0000 </r>
       <r>   -8.1318    1.0000 </r>
       <r>   -8.0435    1.0000 </r>
       <r>   -7.9809    1.0000 </r>
       <r>   -7.9021    1.0000 </r>
       <r>   -7.7937    1.0000 </r>
       <r>   -7.7484    1.0000 </r>
       <r>   -7.6221    1.0000 </r>
       <r>   -7.4866    1.0000 </r>
       <r>   -7.4074    1.0000 </r>
       <r>   -7.2934    1.0000 </r>
       <r>   -7.1464    1.0000 </r>
       <r>   -7.0567    1.0000 </r>
       <r>   -6.9968    1.0000 </r>
       <r>   -6.9268    1.0000 </r>
       <r>   -6.8518    1.0000 </r>
       <r>   -6.7373    1.0000 </r>
       <r>   -6.7074    1.0000 </r>
       <r>   -6.6188    1.0000 </r>
       <r>   -6.4989    1.0000 </r>
       <r>   -6.4470    1.0000 </r>
       <r>   -6.3972    1.0000 </r>
       <r>   -6.3482    1.0000 </r>
       <r>   -6.2095    1.0000 </r>
       <r>   -6.1598    1.0000 </r>
       <r>   -6.1145    1.0000 </r>
       <r>   -6.0467    1.0000 </r>
       <r>   -5.9985    1.0000 </r>
       <r>   -5.9382    1.0000 </r>
       <r>   -5.8624    1.0000 </r>
       <r>   -5.7218    1.0000 </r>
       <r>   -5.6064    1.0000 </r>
       <r>   -5.5615    1.0000 </r>
       <r>   -5.5023    1.0000 </r>
       <r>   -5.4361    1.0000 </r>
       <r>   -5.3514    1.0000 </r>
       <r>   -5.2517    1.0000 </r>
       <r>   -5.0326    1.0000 </r>
       <r>   -4.8668    1.0000 </r>
       <r>   -4.8010    1.0000 </r>
       <r>   -4.7604    1.0000 </r>
       <r>   -4.5231    1.0000 </r>
       <r>   -4.4686    1.0000 </r>
       <r>   -4.3868    1.0000 </r>
       <r>   -4.1995    1.0000 </r>
       <r>   -4.1286    1.0000 </r>
       <r>   -4.0002    1.0000 </r>
       <r>   -3.8468    1.0000 </r>
       <r>   -3.7013    0.9981 </r>
       <r>   -3.5456    0.9632 </r>
       <r>   -3.2721    0.4426 </r>
       <r>   -3.0279    0.0306 </r>
       <r>   -2.8886    0.0021 </r>
       <r>   -2.7120    0.0000 </r>
       <r>   -2.5011    0.0000 </r>
       <r>   -2.4436    0.0000 </r>
       <r>   -2.3101    0.0000 </r>
       <r>   -2.1968    0.0000 </r>
       <r>   -2.1211    0.0000 </r>
       <r>   -1.9246    0.0000 </r>
       <r>   -1.8381    0.0000 </r>
       <r>   -1.7024    0.0000 </r>
       <r>   -1.5440    0.0000 </r>
       <r>   -1.4465    0.0000 </r>
       <r>   -1.3709    0.0000 </r>
       <r>   -1.2440    0.0000 </r>
       <r>   -1.1431    0.0000 </r>
       <r>   -1.1117    0.0000 </r>
       <r>   -1.0438    0.0000 </r>
       <r>   -0.9550    0.0000 </r>
       <r>   -0.9519    0.0000 </r>
       <r>   -0.8046    0.0000 </r>
       <r>   -0.7567    0.0000 </r>
       <r>   -0.6861    0.0000 </r>
       <r>   -0.6066    0.0000 </r>
       <r>   -0.4964    0.0000 </r>
       <r>   -0.3818    0.0000 </r>
       <r>   -0.2329    0.0000 </r>
       <r>   -0.1821    0.0000 </r>
       <r>   -0.0099    0.0000 </r>
       <r>    0.1473    0.0000 </r>
       <r>    0.4878    0.0000 </r>
       <r>    0.6621    0.0000 </r>
       <r>    0.6975    0.0000 </r>
       <r>    0.9631    0.0000 </r>
       <r>    1.0966    0.0000 </r>
       <r>    1.2286    0.0000 </r>
       <r>    1.5025    0.0000 </r>
       <r>    2.1386    0.0000 </r>
       <r>    2.3003    0.0000 </r>
       <r>    2.4019    0.0000 </r>
      </set>
      <set comment="kpoint 32">
       <r>  -17.5345    1.0000 </r>
       <r>  -17.1713    1.0000 </r>
       <r>  -17.0954    1.0000 </r>
       <r>  -16.6592    1.0000 </r>
       <r>  -16.4748    1.0000 </r>
       <r>  -16.3502    1.0000 </r>
       <r>  -16.3103    1.0000 </r>
       <r>  -16.2712    1.0000 </r>
       <r>  -16.1023    1.0000 </r>
       <r>  -16.0073    1.0000 </r>
       <r>  -15.9660    1.0000 </r>
       <r>  -15.8671    1.0000 </r>
       <r>  -15.7859    1.0000 </r>
       <r>  -15.6730    1.0000 </r>
       <r>  -15.6006    1.0000 </r>
       <r>  -15.5101    1.0000 </r>
       <r>  -15.4058    1.0000 </r>
       <r>  -15.2704    1.0000 </r>
       <r>   -9.6786    1.0000 </r>
       <r>   -9.5908    1.0000 </r>
       <r>   -9.3835    1.0000 </r>
       <r>   -8.9130    1.0000 </r>
       <r>   -8.7777    1.0000 </r>
       <r>   -8.6051    1.0000 </r>
       <r>   -8.5698    1.0000 </r>
       <r>   -8.4806    1.0000 </r>
       <r>   -8.4154    1.0000 </r>
       <r>   -8.3778    1.0000 </r>
       <r>   -8.3245    1.0000 </r>
       <r>   -8.2599    1.0000 </r>
       <r>   -8.1952    1.0000 </r>
       <r>   -8.0824    1.0000 </r>
       <r>   -8.0033    1.0000 </r>
       <r>   -7.8764    1.0000 </r>
       <r>   -7.8541    1.0000 </r>
       <r>   -7.7561    1.0000 </r>
       <r>   -7.5984    1.0000 </r>
       <r>   -7.4433    1.0000 </r>
       <r>   -7.3194    1.0000 </r>
       <r>   -7.2587    1.0000 </r>
       <r>   -7.1488    1.0000 </r>
       <r>   -7.1280    1.0000 </r>
       <r>   -7.0435    1.0000 </r>
       <r>   -6.9839    1.0000 </r>
       <r>   -6.7924    1.0000 </r>
       <r>   -6.7603    1.0000 </r>
       <r>   -6.6550    1.0000 </r>
       <r>   -6.6182    1.0000 </r>
       <r>   -6.5034    1.0000 </r>
       <r>   -6.4747    1.0000 </r>
       <r>   -6.3648    1.0000 </r>
       <r>   -6.3020    1.0000 </r>
       <r>   -6.2352    1.0000 </r>
       <r>   -6.1767    1.0000 </r>
       <r>   -6.1444    1.0000 </r>
       <r>   -6.0530    1.0000 </r>
       <r>   -5.9680    1.0000 </r>
       <r>   -5.9251    1.0000 </r>
       <r>   -5.7985    1.0000 </r>
       <r>   -5.7144    1.0000 </r>
       <r>   -5.6359    1.0000 </r>
       <r>   -5.5605    1.0000 </r>
       <r>   -5.5176    1.0000 </r>
       <r>   -5.4459    1.0000 </r>
       <r>   -5.3712    1.0000 </r>
       <r>   -5.2841    1.0000 </r>
       <r>   -5.1308    1.0000 </r>
       <r>   -4.9055    1.0000 </r>
       <r>   -4.7683    1.0000 </r>
       <r>   -4.6554    1.0000 </r>
       <r>   -4.4978    1.0000 </r>
       <r>   -4.4588    1.0000 </r>
       <r>   -4.4017    1.0000 </r>
       <r>   -4.2402    1.0000 </r>
       <r>   -4.2068    1.0000 </r>
       <r>   -4.0185    1.0000 </r>
       <r>   -3.8716    1.0000 </r>
       <r>   -3.7410    0.9992 </r>
       <r>   -3.5092    0.9372 </r>
       <r>   -3.2025    0.2622 </r>
       <r>   -3.0453    0.0402 </r>
       <r>   -2.8008    0.0003 </r>
       <r>   -2.6784    0.0000 </r>
       <r>   -2.5217    0.0000 </r>
       <r>   -2.4235    0.0000 </r>
       <r>   -2.3051    0.0000 </r>
       <r>   -2.1445    0.0000 </r>
       <r>   -2.0669    0.0000 </r>
       <r>   -1.9151    0.0000 </r>
       <r>   -1.8491    0.0000 </r>
       <r>   -1.7102    0.0000 </r>
       <r>   -1.5641    0.0000 </r>
       <r>   -1.4984    0.0000 </r>
       <r>   -1.4017    0.0000 </r>
       <r>   -1.2679    0.0000 </r>
       <r>   -1.1648    0.0000 </r>
       <r>   -1.0949    0.0000 </r>
       <r>   -1.0599    0.0000 </r>
       <r>   -1.0160    0.0000 </r>
       <r>   -0.9718    0.0000 </r>
       <r>   -0.8516    0.0000 </r>
       <r>   -0.7130    0.0000 </r>
       <r>   -0.6509    0.0000 </r>
       <r>   -0.6055    0.0000 </r>
       <r>   -0.4021    0.0000 </r>
       <r>   -0.3503    0.0000 </r>
       <r>   -0.2246    0.0000 </r>
       <r>   -0.1238    0.0000 </r>
       <r>    0.0216    0.0000 </r>
       <r>    0.1826    0.0000 </r>
       <r>    0.4643    0.0000 </r>
       <r>    0.6648    0.0000 </r>
       <r>    0.7394    0.0000 </r>
       <r>    0.9280    0.0000 </r>
       <r>    1.0224    0.0000 </r>
       <r>    1.2062    0.0000 </r>
       <r>    1.3428    0.0000 </r>
       <r>    2.0999    0.0000 </r>
       <r>    2.2712    0.0000 </r>
       <r>    2.5758    0.0000 </r>
      </set>
      <set comment="kpoint 33">
       <r>  -17.5184    1.0000 </r>
       <r>  -17.2891    1.0000 </r>
       <r>  -16.9392    1.0000 </r>
       <r>  -16.6738    1.0000 </r>
       <r>  -16.5002    1.0000 </r>
       <r>  -16.4214    1.0000 </r>
       <r>  -16.3241    1.0000 </r>
       <r>  -16.2345    1.0000 </r>
       <r>  -16.0723    1.0000 </r>
       <r>  -16.0108    1.0000 </r>
       <r>  -15.9226    1.0000 </r>
       <r>  -15.8759    1.0000 </r>
       <r>  -15.7799    1.0000 </r>
       <r>  -15.6739    1.0000 </r>
       <r>  -15.6338    1.0000 </r>
       <r>  -15.5412    1.0000 </r>
       <r>  -15.3787    1.0000 </r>
       <r>  -15.2671    1.0000 </r>
       <r>   -9.7666    1.0000 </r>
       <r>   -9.5046    1.0000 </r>
       <r>   -9.2674    1.0000 </r>
       <r>   -8.9401    1.0000 </r>
       <r>   -8.8986    1.0000 </r>
       <r>   -8.7194    1.0000 </r>
       <r>   -8.5644    1.0000 </r>
       <r>   -8.4848    1.0000 </r>
       <r>   -8.4333    1.0000 </r>
       <r>   -8.3795    1.0000 </r>
       <r>   -8.2990    1.0000 </r>
       <r>   -8.2247    1.0000 </r>
       <r>   -8.1621    1.0000 </r>
       <r>   -8.0825    1.0000 </r>
       <r>   -7.9271    1.0000 </r>
       <r>   -7.8887    1.0000 </r>
       <r>   -7.8409    1.0000 </r>
       <r>   -7.7170    1.0000 </r>
       <r>   -7.6209    1.0000 </r>
       <r>   -7.3556    1.0000 </r>
       <r>   -7.3489    1.0000 </r>
       <r>   -7.2550    1.0000 </r>
       <r>   -7.1731    1.0000 </r>
       <r>   -7.0926    1.0000 </r>
       <r>   -7.0089    1.0000 </r>
       <r>   -6.8959    1.0000 </r>
       <r>   -6.8272    1.0000 </r>
       <r>   -6.7186    1.0000 </r>
       <r>   -6.6431    1.0000 </r>
       <r>   -6.6174    1.0000 </r>
       <r>   -6.5780    1.0000 </r>
       <r>   -6.4814    1.0000 </r>
       <r>   -6.4023    1.0000 </r>
       <r>   -6.3337    1.0000 </r>
       <r>   -6.2525    1.0000 </r>
       <r>   -6.2011    1.0000 </r>
       <r>   -6.1121    1.0000 </r>
       <r>   -6.0932    1.0000 </r>
       <r>   -6.0404    1.0000 </r>
       <r>   -5.9128    1.0000 </r>
       <r>   -5.8441    1.0000 </r>
       <r>   -5.7821    1.0000 </r>
       <r>   -5.6720    1.0000 </r>
       <r>   -5.6158    1.0000 </r>
       <r>   -5.4887    1.0000 </r>
       <r>   -5.4662    1.0000 </r>
       <r>   -5.3169    1.0000 </r>
       <r>   -5.1663    1.0000 </r>
       <r>   -5.1115    1.0000 </r>
       <r>   -4.8705    1.0000 </r>
       <r>   -4.8475    1.0000 </r>
       <r>   -4.5648    1.0000 </r>
       <r>   -4.5390    1.0000 </r>
       <r>   -4.4776    1.0000 </r>
       <r>   -4.3424    1.0000 </r>
       <r>   -4.2707    1.0000 </r>
       <r>   -4.1773    1.0000 </r>
       <r>   -4.0313    1.0000 </r>
       <r>   -3.9170    1.0000 </r>
       <r>   -3.8109    0.9999 </r>
       <r>   -3.5272    0.9515 </r>
       <r>   -3.1141    0.1035 </r>
       <r>   -3.0844    0.0706 </r>
       <r>   -2.7378    0.0000 </r>
       <r>   -2.6397    0.0000 </r>
       <r>   -2.5448    0.0000 </r>
       <r>   -2.3979    0.0000 </r>
       <r>   -2.3019    0.0000 </r>
       <r>   -2.1013    0.0000 </r>
       <r>   -1.9927    0.0000 </r>
       <r>   -1.9284    0.0000 </r>
       <r>   -1.7968    0.0000 </r>
       <r>   -1.7115    0.0000 </r>
       <r>   -1.5904    0.0000 </r>
       <r>   -1.5358    0.0000 </r>
       <r>   -1.4482    0.0000 </r>
       <r>   -1.2912    0.0000 </r>
       <r>   -1.1836    0.0000 </r>
       <r>   -1.1019    0.0000 </r>
       <r>   -1.0753    0.0000 </r>
       <r>   -1.0595    0.0000 </r>
       <r>   -0.9564    0.0000 </r>
       <r>   -0.9158    0.0000 </r>
       <r>   -0.7013    0.0000 </r>
       <r>   -0.6566    0.0000 </r>
       <r>   -0.6168    0.0000 </r>
       <r>   -0.3498    0.0000 </r>
       <r>   -0.2921    0.0000 </r>
       <r>   -0.2205    0.0000 </r>
       <r>   -0.0493    0.0000 </r>
       <r>    0.0545    0.0000 </r>
       <r>    0.2535    0.0000 </r>
       <r>    0.4022    0.0000 </r>
       <r>    0.6903    0.0000 </r>
       <r>    0.7582    0.0000 </r>
       <r>    0.9032    0.0000 </r>
       <r>    0.9923    0.0000 </r>
       <r>    1.1853    0.0000 </r>
       <r>    1.2311    0.0000 </r>
       <r>    2.1204    0.0000 </r>
       <r>    2.3057    0.0000 </r>
       <r>    2.3919    0.0000 </r>
      </set>
      <set comment="kpoint 34">
       <r>  -17.4936    1.0000 </r>
       <r>  -17.3560    1.0000 </r>
       <r>  -16.7894    1.0000 </r>
       <r>  -16.6744    1.0000 </r>
       <r>  -16.6565    1.0000 </r>
       <r>  -16.4047    1.0000 </r>
       <r>  -16.3142    1.0000 </r>
       <r>  -16.2503    1.0000 </r>
       <r>  -16.0565    1.0000 </r>
       <r>  -15.9993    1.0000 </r>
       <r>  -15.9113    1.0000 </r>
       <r>  -15.8465    1.0000 </r>
       <r>  -15.7483    1.0000 </r>
       <r>  -15.6986    1.0000 </r>
       <r>  -15.6739    1.0000 </r>
       <r>  -15.5473    1.0000 </r>
       <r>  -15.3611    1.0000 </r>
       <r>  -15.2757    1.0000 </r>
       <r>   -9.8062    1.0000 </r>
       <r>   -9.4255    1.0000 </r>
       <r>   -9.1453    1.0000 </r>
       <r>   -9.0174    1.0000 </r>
       <r>   -8.9285    1.0000 </r>
       <r>   -8.8772    1.0000 </r>
       <r>   -8.5748    1.0000 </r>
       <r>   -8.4869    1.0000 </r>
       <r>   -8.4416    1.0000 </r>
       <r>   -8.4071    1.0000 </r>
       <r>   -8.2841    1.0000 </r>
       <r>   -8.1873    1.0000 </r>
       <r>   -8.1468    1.0000 </r>
       <r>   -8.0214    1.0000 </r>
       <r>   -7.9023    1.0000 </r>
       <r>   -7.8528    1.0000 </r>
       <r>   -7.8489    1.0000 </r>
       <r>   -7.8024    1.0000 </r>
       <r>   -7.4673    1.0000 </r>
       <r>   -7.4300    1.0000 </r>
       <r>   -7.2974    1.0000 </r>
       <r>   -7.2354    1.0000 </r>
       <r>   -7.1712    1.0000 </r>
       <r>   -7.0822    1.0000 </r>
       <r>   -6.9828    1.0000 </r>
       <r>   -6.9378    1.0000 </r>
       <r>   -6.7787    1.0000 </r>
       <r>   -6.6760    1.0000 </r>
       <r>   -6.6556    1.0000 </r>
       <r>   -6.6232    1.0000 </r>
       <r>   -6.5906    1.0000 </r>
       <r>   -6.5131    1.0000 </r>
       <r>   -6.4417    1.0000 </r>
       <r>   -6.3917    1.0000 </r>
       <r>   -6.2482    1.0000 </r>
       <r>   -6.2081    1.0000 </r>
       <r>   -6.1516    1.0000 </r>
       <r>   -6.1279    1.0000 </r>
       <r>   -6.0295    1.0000 </r>
       <r>   -5.8866    1.0000 </r>
       <r>   -5.8247    1.0000 </r>
       <r>   -5.7900    1.0000 </r>
       <r>   -5.7341    1.0000 </r>
       <r>   -5.6803    1.0000 </r>
       <r>   -5.5469    1.0000 </r>
       <r>   -5.4149    1.0000 </r>
       <r>   -5.2670    1.0000 </r>
       <r>   -5.2115    1.0000 </r>
       <r>   -4.9206    1.0000 </r>
       <r>   -4.8965    1.0000 </r>
       <r>   -4.8212    1.0000 </r>
       <r>   -4.6615    1.0000 </r>
       <r>   -4.5302    1.0000 </r>
       <r>   -4.4665    1.0000 </r>
       <r>   -4.3587    1.0000 </r>
       <r>   -4.2929    1.0000 </r>
       <r>   -4.0565    1.0000 </r>
       <r>   -4.0108    1.0000 </r>
       <r>   -3.9272    1.0000 </r>
       <r>   -3.9049    1.0000 </r>
       <r>   -3.5480    0.9646 </r>
       <r>   -3.1281    0.1224 </r>
       <r>   -3.0614    0.0511 </r>
       <r>   -2.7161    0.0000 </r>
       <r>   -2.6156    0.0000 </r>
       <r>   -2.5588    0.0000 </r>
       <r>   -2.3915    0.0000 </r>
       <r>   -2.2982    0.0000 </r>
       <r>   -2.0778    0.0000 </r>
       <r>   -1.9770    0.0000 </r>
       <r>   -1.9111    0.0000 </r>
       <r>   -1.7546    0.0000 </r>
       <r>   -1.7243    0.0000 </r>
       <r>   -1.6197    0.0000 </r>
       <r>   -1.5346    0.0000 </r>
       <r>   -1.4758    0.0000 </r>
       <r>   -1.2884    0.0000 </r>
       <r>   -1.1992    0.0000 </r>
       <r>   -1.1198    0.0000 </r>
       <r>   -1.0820    0.0000 </r>
       <r>   -1.0457    0.0000 </r>
       <r>   -0.9785    0.0000 </r>
       <r>   -0.9290    0.0000 </r>
       <r>   -0.7108    0.0000 </r>
       <r>   -0.6708    0.0000 </r>
       <r>   -0.6113    0.0000 </r>
       <r>   -0.3128    0.0000 </r>
       <r>   -0.2679    0.0000 </r>
       <r>   -0.2498    0.0000 </r>
       <r>   -0.0325    0.0000 </r>
       <r>    0.0827    0.0000 </r>
       <r>    0.3240    0.0000 </r>
       <r>    0.3630    0.0000 </r>
       <r>    0.6940    0.0000 </r>
       <r>    0.7611    0.0000 </r>
       <r>    0.8515    0.0000 </r>
       <r>    1.0162    0.0000 </r>
       <r>    1.1570    0.0000 </r>
       <r>    1.2331    0.0000 </r>
       <r>    2.1689    0.0000 </r>
       <r>    2.2777    0.0000 </r>
       <r>    2.3800    0.0000 </r>
      </set>
     </set>
    </set>
   </array>
  </eigenvalues>
  <separator name="orbital magnetization" >
   <v name="MAGDIPOLOUT">      0.00000000      0.00000000      0.00000000</v>
  </separator>
 </calculation>
 <structure name="finalpos" >
  <crystal>
   <varray name="basis" >
    <v>       8.35663000       4.81023753       0.00000000 </v>
    <v>      -8.35231692       4.80304372       0.00000000 </v>
    <v>       0.00000000       0.00000000      30.00000000 </v>
   </varray>
   <i name="volume">   2409.41662568 </i>
   <varray name="rec_basis" >
    <v>       0.05980340       0.10399592       0.00000000 </v>
    <v>      -0.05989297       0.10404963       0.00000000 </v>
    <v>       0.00000000       0.00000000       0.03333333 </v>
   </varray>
  </crystal>
  <varray name="positions" >
   <v>       0.01871979      -0.01423092       0.00098736 </v>
   <v>       0.01611405       0.67624938       0.00014621 </v>
   <v>       0.68624577       0.64624073       0.00214818 </v>
   <v>       0.34336159       0.00600490      -0.00002157 </v>
   <v>       0.64895179       0.31385827       0.00029338 </v>
   <v>       0.31325143       0.68661485      -0.00218984 </v>
   <v>       0.99348408       0.36581392      -0.00188627 </v>
   <v>       0.35514143       0.31556283       0.00103971 </v>
   <v>       0.63563982       0.00271007      -0.00037893 </v>
   <v>       0.11221053       0.22184107       0.95546943 </v>
   <v>       0.21947894       0.10880462       0.05433626 </v>
   <v>       0.10560273       0.56530573       0.94280562 </v>
   <v>       0.22472411       0.44469243       0.04435990 </v>
   <v>       0.10858125       0.88549509       0.94778787 </v>
   <v>       0.21471865       0.78206653       0.05401823 </v>
   <v>       0.44577768       0.21776719       0.94343044 </v>
   <v>       0.55003858       0.10865982       0.05721635 </v>
   <v>       0.44828530       0.55740667       0.95677966 </v>
   <v>       0.55946928       0.44341933       0.05523339 </v>
   <v>       0.44088532       0.89080076       0.94255920 </v>
   <v>       0.55309119       0.77242934       0.04577966 </v>
   <v>       0.77675370       0.21826876       0.94625473 </v>
   <v>       0.88902886       0.11261901       0.04170132 </v>
   <v>       0.78255080       0.55352755       0.95060541 </v>
   <v>       0.88793665       0.45561279       0.05179523 </v>
   <v>       0.77497831       0.88282325       0.95792331 </v>
   <v>       0.89319281       0.77785049       0.05180567 </v>
  </varray>
 </structure>
</modeling>
